LAMMPS (23 Jun 2022)
OMP_NUM_THREADS environment is not set. Defaulting to 1 thread. (src/src/comm.cpp:98)
  using 1 OpenMP thread(s) per MPI task
Created orthogonal box = (0 0 0) to (150 150 150)
  4 by 4 by 4 MPI processor grid
Read molecule template lig:
  1 molecules
  0 fragments
  5 atoms with max type 2
  4 bonds with max type 1
  3 angles with max type 1
  0 dihedrals with max type 0
  0 impropers with max type 0
Created 1 atoms
  using box units in orthogonal box = (0 0 0) to (150 150 150)
  create_atoms CPU = 0.000 seconds
Created 3000 atoms
  using lattice units in orthogonal box = (0 0 0) to (150 150 150)
  create_atoms CPU = 0.004 seconds
Finding 1-2 1-3 1-4 neighbors ...
  special bond factors lj:    0        1        1       
  special bond factors coul:  0        0        0       
     2 = max # of 1-2 neighbors
     2 = max # of 1-3 neighbors
     2 = max # of 1-4 neighbors
     7 = max # of special neighbors
  special bonds CPU = 0.002 seconds
3000 atoms in group ligands
Generated 0 of 6 mixed pair_coeff terms from geometric mixing rule
Neighbor list info ...
  update every 1 steps, delay 10 steps, check yes
  max neighbors/atom: 2000, page size: 100000
  master list distance cutoff = 60
  ghost atom cutoff = 60
  binsize = 30, bins = 5 5 5
  1 neighbor lists, perpetual/occasional/extra = 1 0 0
  (1) pair lj/expand, perpetual
      attributes: half, newton on
      pair build: half/bin/newton
      stencil: half/bin/3d
      bin: standard
Setting up Verlet run ...
  Unit style    : real
  Current step  : 0
  Time step     : 30
Per MPI rank memory allocation (min/avg/max) = 8.076 | 8.105 | 8.367 Mbytes
   Step          Temp          E_pair         E_mol          TotEng         Press     
         0   0              9.8623636e+13  4.0068356e-25  9.8623636e+13  8.0147754e+12
       100   141.75497     -371.30508      618.09506      1514.4239     -2.66946      
       200   143.00542     -458.5779       629.09262      1449.3307      2.3256475    
       300   141.88505     -453.32537      641.34577      1456.8175     -2.0593933    
       400   141.78605     -477.67787      651.23576      1441.4698     -2.0752448    
       500   140.77194     -517.8528       628.77878      1369.7692     -2.7514843    
       600   141.89931     -588.68344      620.91828      1301.1595     -1.5959554    
       700   140.95775     -634.92624      637.97168      1263.5502      6.1854222    
       800   141.93758     -657.45405      620.47413      1232.287       11.529277    
       900   142.54163     -679.7          629.27998      1224.2485      4.5962712    
      1000   140.415       -701.66303      625.23177      1179.22        7.4703245    
      1100   139.98375     -723.25626      626.69895      1155.2376     -1.5563231    
      1200   143.16931     -734.93219      641.31774      1186.6671      3.9901515    
      1300   141.47027     -755.56167      618.77663      1128.303      -1.1831384    
      1400   143.0876      -741.08496      629.43039      1167.8963     -1.4468725    
      1500   140.68016     -745.96302      646.55216      1158.6116     -0.80039053   
      1600   139.26587     -746.35204      636.9911       1136.0144     -2.8489778    
      1700   143.21044     -755.36787      631.18817      1156.4697      8.5790254    
      1800   145.06056     -759.17404      649.92318      1187.943      -2.2062089    
      1900   142.93392     -784.2252       668.43525      1162.3866     -3.891007     
      2000   140.92171     -770.91263      652.11856      1141.3884      0.51334838   
      2100   141.82941     -777.35211      643.04526      1133.9927     -8.1275055    
      2200   142.17519     -778.75231      658.75401      1151.3934      6.2398603    
      2300   142.8229      -780.78196      636.80537      1133.2072     -3.9891001    
      2400   142.5144      -773.42997      611.04561      1112.0407      0.70842721   
      2500   143.10626     -798.32796      633.41825      1114.808       10.188886    
      2600   141.74532     -797.43421      636.88437      1106.9977     -0.32497674   
      2700   139.39928     -819.54215      614.91401      1041.9402     -6.3030357    
      2800   143.18841     -813.02926      629.74347      1097.1666     -0.34129097   
      2900   141.49982     -813.37382      638.61174      1090.5902     -5.474926     
      3000   142.08287     -820.58592      608.48992      1058.4701      5.6982642    
      3100   140.77292     -839.43169      639.8464       1059.2668     -0.6608761    
      3200   141.18933     -852.91937      613.83808      1023.4944     -7.3464894    
      3300   142.90095     -877.15827      623.80853      1024.532       1.1774869    
      3400   140.23521     -887.10639      602.88438      969.82159      5.5318516    
      3500   146.97556     -892.83236      636.31979      1057.8061     -5.1243792    
      3600   143.31157     -902.25474      650.26426      1029.5632      0.37534142   
      3700   141.19559     -900.22767      648.67368      1011.0778     -0.068736176  
      3800   140.32734     -896.78718      645.16968      1003.2499      2.1981797    
      3900   139.46983     -900.62822      607.51366      954.08462      5.4994069    
      4000   141.45271     -890.50148      603.98795      978.41743      1.6730368    
      4100   144.14873     -939.92847      623.8778       972.98925      1.6141637    
      4200   144.15525     -942.57914      639.21046      985.72953      3.2991371    
      4300   141.76856     -940.59598      632.36076      959.52024      1.4867223    
      4400   142.33278     -934.98288      620.09148      957.90953     -4.4582128    
      4500   142.33596     -947.24739      624.05197      949.63397      12.913719    
      4600   145.25116     -978.68899      636.38538      956.59471      4.5844117    
      4700   141.51934     -977.45014      627.13443      915.21112     -0.36695777   
      4800   141.9121      -982.60836      642.26228      928.69295      1.4984508    
      4900   140.12016     -998.221        623.51721      878.31095      2.5998665    
      5000   140.29218     -1026.0581      650.62235      879.11725     -2.2527375    
      5100   141.69624     -1061.7302      621.1561       826.53464     -4.045572     
      5200   139.48683     -1058.5433      646.50026      835.30822     -0.80682554   
      5300   141.30048     -1080.4631      643.29773      826.40429     -10.434988    
      5400   143.03524     -1082.6758      609.6586       806.06541      1.3915807    
      5500   141.45141     -1079.0155      640.54603      826.44994     -3.0853935    
      5600   142.88927     -1077.2264      645.74423      846.29509     -8.2714941    
      5700   143.3566      -1084.5936      636.8023       834.16507      0.21703292   
      5800   143.08414     -1095.0418      631.10914      815.58727     -3.4700777    
      5900   144.22772     -1101.3033      639.72583      828.16887      5.5476969    
      6000   141.26705     -1105.6079      626.0265       783.68935      1.3122805    
      6100   140.91414     -1119.1137      624.83366      765.83478      9.1791328    
      6200   142.48875     -1122.8796      639.80889      791.12497     -9.2935777    
      6300   144.31441     -1145.0619      611.90633      757.36598      1.3319099    
      6400   140.95675     -1155.3354      611.95785      717.11834      4.0973568    
      6500   138.92343     -1170.8142      637.90043      709.3993      -2.2766311    
      6600   142.10848     -1165.1789      623.64577      729.26205      8.5507034    
      6700   140.87842     -1160.3248      649.59968      749.07027      8.5489689    
      6800   141.3164      -1158.9962      641.14141      745.85727      4.4124692    
      6900   140.41074     -1159.9903      677.29893      772.92188      0.097155292  
      7000   142.02703     -1177.4463      656.27197      748.89248     -3.7770591    
      7100   141.16082     -1168.8344      644.52257      738.00896      7.8313061    
      7200   143.53332     -1169.3304      641.04703      755.25327      11.701251    
      7300   142.73119     -1162.4332      643.32201      757.25254     -4.1747628    
      7400   142.15625     -1158.5599      656.4164       769.07885     -4.5426295    
      7500   142.22547     -1155.3973      638.88493      755.32899      2.5261505    
      7600   142.82207     -1174.0852      620.83921      723.9304       5.5459892    
      7700   142.63275     -1209.3802      631.85467      697.95792      8.7016936    
      7800   138.00789     -1199.6548      655.21391      689.68499      1.2636256    
      7900   140.61032     -1197.5241      643.50555      703.37946     -3.4502753    
      8000   142.82086     -1222.2116      637.8699       692.82384     -1.3112126    
      8100   140.83962     -1218.9129      611.60607      652.14156     -3.7074609    
      8200   140.63714     -1229.9325      647.30972      675.01499     -9.0677401    
      8300   141.51844     -1236.1618      617.55873      646.91571      19.137289    
      8400   141.71457     -1239.7329      641.71155      669.2513       0.11546974   
      8500   143.79955     -1243.6353      634.08329      676.36546      8.3189605    
      8600   143.22247     -1261.9155      610.43737      629.27884     -0.67040882   
      8700   141.69809     -1268.8385      614.35455      612.64136     -6.8548092    
      8800   143.16112     -1276.0699      615.46218      619.60063      1.3485382    
      8900   140.64123     -1270.0371      642.91327      630.55058     -0.36734531   
      9000   143.39249     -1268.7045      636.37267      649.94554      1.4611111    
      9100   141.25261     -1274.4619      612.36261      601.04235     -2.5346685    
      9200   142.03142     -1287.1766      650.39343      633.32292     -3.1867172    
      9300   141.62642     -1282.9718      639.66349      623.17605     -0.20313015   
      9400   142.40578     -1284.3946      646.07764      635.13675      1.2786782    
      9500   142.417       -1283.162       640.96219      631.35429      12.333427    
      9600   142.5457      -1313.2941      614.9285       576.33943      11.32181     
      9700   139.61531     -1312.0805      631.11796      567.53764     -4.3852078    
      9800   141.73655     -1317.4398      650.12622      600.15561     -13.768032    
      9900   142.37301     -1312.7285      621.80977      582.24189      8.3228694    
     10000   143.72571     -1331.9412      638.05815      591.37399     -10.79843     
Loop time of 3.96015 on 64 procs for 10000 steps with 3001 atoms

Performance: 6545.203 ns/day, 0.004 hours/ns, 2525.156 timesteps/s
99.4% CPU use with 64 MPI tasks x 1 OpenMP threads

MPI task timing breakdown:
Section |  min time  |  avg time  |  max time  |%varavg| %total
---------------------------------------------------------------
Pair    | 0.016648   | 0.053485   | 0.12857    |  10.6 |  1.35
Bond    | 0.011161   | 0.021464   | 0.037898   |   3.9 |  0.54
Neigh   | 0.55611    | 0.56266    | 0.57652    |   0.6 | 14.21
Comm    | 3.0935     | 3.1942     | 3.2558     |   2.0 | 80.66
Output  | 0.042574   | 0.043549   | 0.044291   |   0.3 |  1.10
Modify  | 0.020712   | 0.040333   | 0.069636   |   5.3 |  1.02
Other   |            | 0.04449    |            |       |  1.12

Nlocal:        46.8906 ave          82 max          17 min
Histogram: 4 5 7 14 9 8 7 5 2 3
Nghost:        3452.05 ave        3533 max        3363 min
Histogram: 2 3 1 9 13 18 5 7 2 4
Neighs:        332.438 ave         839 max          55 min
Histogram: 5 20 5 8 10 6 4 4 0 2

Total # of neighbors = 21276
Ave neighs/atom = 7.0896368
Ave special neighs/atom = 3.5988004
Neighbor list builds = 910
Dangerous builds = 0
1 atoms in group nps
600 atoms in group amines
Generated 0 of 6 mixed pair_coeff terms from geometric mixing rule
Neighbor list info ...
  update every 1 steps, delay 10 steps, check yes
  max neighbors/atom: 2000, page size: 100000
  master list distance cutoff = 60
  ghost atom cutoff = 60
  binsize = 30, bins = 5 5 5
  2 neighbor lists, perpetual/occasional/extra = 1 1 0
  (1) pair lj/expand, perpetual
      attributes: half, newton on
      pair build: half/bin/newton
      stencil: half/bin/3d
      bin: standard
  (2) compute coord/atom, occasional
      attributes: full, newton on
      pair build: full/bin
      stencil: full/bin/3d
      bin: standard
Setting up Verlet run ...
  Unit style    : real
  Current step  : 10000
  Time step     : 30
Per MPI rank memory allocation (min/avg/max) = 9.087 | 9.199 | 10.1 Mbytes
   Step          Temp          E_pair         E_mol          TotEng         Press     
     10000   143.72571     -1331.9412      638.05815      591.37399     -10.79843     
     10100   295.84727     -1273.0794      1212.8204      2585.3345      7.5833681    
     10200   306.87024     -1250.9747      1295.5303      2788.7212      2.1960992    
     10300   296.12551     -1255.3617      1210.9096      2603.6295      19.118691    
     10400   289.83557     -1255.8787      1277.6094      2613.565       7.4263938    
     10500   300.57716     -1264.5782      1271.8283      2695.1404     -19.184848    
     10600   302.38946     -1272.371       1297.344       2729.0697      8.4244481    
     10700   294.08258     -1288.6682      1289.6047      2630.7494      0.83795011   
     10800   293.22272     -1289.6848      1241.7085      2574.1474      14.763741    
     10900   298.79835     -1287.5068      1265.8452      2650.3217      0.39116871   
     11000   298.42263     -1291.4867      1258.1704      2635.3072      12.442501    
     11100   298.38383     -1283.4034      1314.4055      2699.2786     -9.8160525    
     11200   297.74518     -1275.3381      1258.2146      2645.4419      13.282551    
     11300   305.9123      -1318.4114      1228.9425      2646.1305      16.406127    
     11400   301.83055     -1338.4763      1267.5465      2628.1688      9.5378876    
     11500   292.11076     -1354.2891      1283.5244      2541.4154      21.470835    
     11600   297.11855     -1358.687       1295.972       2594.2469     -2.3301253    
     11700   298.51723     -1347.8212      1314.35        2635.9983      17.528526    
     11800   300.63653     -1352.8563      1311.2003      2646.7652      6.6007632    
     11900   302.6959      -1382.4833      1264.0012      2588.3548      31.083036    
     12000   299.11636     -1396.5901      1257.098       2535.335       7.8025219    
     12100   296.86282     -1397.7228      1283.2192      2540.1715      2.1406279    
     12200   305.94818     -1420.5893      1258.1588      2573.4898      7.8843438    
     12300   307.42289     -1436.656       1277.722       2590.1737      18.878118    
     12400   303.42043     -1443.2528      1275.3513      2545.4145     -6.135017     
     12500   301.86218     -1460.8437      1295.2034      2533.7411      13.373435    
     12600   304.14869     -1470.0575      1282.0824      2531.8533     -0.31088737   
     12700   301.12903     -1503.5874      1295.7485      2484.9865      8.8651243    
     12800   299.04149     -1501.136       1289.463       2462.4846      7.1470114    
     12900   297.85333     -1506.6613      1234.6856      2391.5568      0.055029338  
     13000   290.40526     -1503.7509      1232.8874      2326.0653      9.3347977    
     13100   295.14315     -1512.2555      1304.7449      2431.7864      16.460091    
     13200   293.39817     -1521.0924      1263.6384      2366.2386     -0.18736935   
     13300   299.0245      -1517.6453      1254.335       2410.6954      11.895798    
     13400   306.60325     -1507.0286      1221.9307      2456.6802     -3.5371915    
     13500   297.05241     -1502.2152      1292.603       2446.7582      12.359418    
     13600   303.34049     -1504.488       1283.8936      2492.0067     -3.0400802    
     13700   299.61362     -1495.2938      1284.2268      2468.2069     -8.1396994    
     13800   299.45892     -1525.4935      1288.4117      2440.8086     -11.392607    
     13900   300.12422     -1533.3794      1261.4516      2411.9121      22.333859    
     14000   300.2785      -1531.3928      1276.973       2430.7998      13.830275    
     14100   296.31778     -1508.9183      1247.473       2388.3559      16.036968    
     14200   296.36157     -1517.4022      1266.8476      2399.638       3.9616713    
     14300   298.84547     -1528.42        1278.8917      2422.8764      4.6996804    
     14400   303.01922     -1542.7155      1274.4734      2441.4862      15.279346    
     14500   298.30968     -1575.6364      1242.8935      2334.8705      1.2312698    
     14600   304.10859     -1564.1509      1324.7414      2480.0604     -4.7394342    
     14700   297.88124     -1577.2558      1260.0306      2346.5569      9.0625793    
     14800   295.58274     -1599.5447      1323.4128      2367.0962      10.628194    
     14900   308.74987     -1617.4216      1313.4819      2457.0344      4.9092712    
     15000   310.51389     -1608.2099      1304.43        2472.9689     -1.2792321    
     15100   297.53358     -1639.3193      1295.1538      2316.5078     -14.435788    
     15200   299.14688     -1651.1916      1242.9711      2266.8796      21.188084    
     15300   301.48889     -1647.015       1312.2551      2361.2834      8.9862469    
     15400   306.79895     -1659.4943      1282.073       2366.107      -7.2407213    
     15500   303.0226      -1667.2594      1258.6364      2301.1355     -4.5204156    
     15600   296.25716     -1656.7268      1206.4664      2198.9986      11.394309    
     15700   294.17615     -1671.5674      1286.9762      2246.0585     -17.066655    
     15800   303.32173     -1678.8729      1282.4417      2316.0021      0.18132333   
     15900   301.15203     -1683.9493      1328.3472      2337.4289      3.3970271    
     16000   299.52135     -1690.6622      1277.0776      2264.8641      18.612111    
     16100   297.56896     -1691.3414      1313.2231      2282.8712      14.634265    
     16200   300.60602     -1716.8777      1291.6989      2262.9696      0.11777952   
     16300   299.27849     -1714.6635      1259.9165      2221.53        1.3316821    
     16400   306.6462      -1734.3369      1278.5583      2286.3836      3.9336769    
     16500   304.14301     -1736.7355      1247.544       2230.5861      19.343616    
     16600   304.83755     -1760.0121      1265.1042      2231.0806      5.8984318    
     16700   294.67527     -1776.2682      1259.7944      2118.6393      25.397025    
     16800   290.33273     -1770.8601      1261.7058      2087.1258      6.6802191    
     16900   297.61306     -1775.7727      1252.991       2138.6023      1.9625588    
     17000   300.93807     -1835.7339      1277.9259      2133.3097      1.216378     
     17100   296.33326     -1829.8375      1278.0522      2098.1541      12.324601    
     17200   295.26234     -1837.6808      1275.3213      2078.0033      14.456628    
     17300   297.12291     -1895.1026      1274.6305      2036.5288      17.108137    
     17400   299.34858     -1882.2058      1265.4872      2060.1852      6.6068167    
     17500   305.12602     -1895.8291      1253.5356      2086.2747      10.160451    
     17600   295.50315     -1889.8349      1259.4061      2012.0875      2.1993508    
     17700   301.9577      -1897.4044      1255.6928      2058.5241      23.211597    
     17800   309.09209     -1871.0792      1307.2177      2200.1729      0.99950958   
     17900   302.61694     -1900.9504      1288.5256      2093.706       3.4880499    
     18000   303.29668     -1911.9777      1277.8529      2078.0846      5.5302799    
     18100   294.06973     -1916.316       1287.5494      2000.9314      8.5585147    
     18200   297.80477     -1907.3099      1254.6572      2010.4456      11.254655    
     18300   300.39253     -1923.6005      1288.6231      2051.2618      16.784658    
     18400   304.0702      -1904.7549      1284.9114      2099.283       26.80212     
     18500   302.32384     -1898.638       1228.2376      2033.1094      0.78754688   
     18600   301.74438     -1906.2704      1224.905       2016.9627      22.32986     
     18700   306.49491     -1923.0099      1237.9995      2055.7989      8.2327697    
     18800   298.84552     -1949.5487      1358.2081      2081.0647      7.334005     
     18900   305.72083     -1933.7741      1237.484       2037.5971      3.7723919    
     19000   292.56763     -1948.5597      1285.4986      1953.2044     -5.6422387    
     19100   302.68457     -1952.1801      1307.7081      2062.2637      19.804416    
     19200   294.32227     -1968.2017      1308.4089      1972.1636     -7.2358322    
     19300   301.18271     -1973.4458      1322.9138      2042.7733     -5.6499867    
     19400   303.98618     -1989.4637      1295.9746      2024.8862     -7.050623     
     19500   307.71728     -2023.4413      1235.6609      1963.96        4.7929384    
     19600   293.06266     -2023.5271      1276.6421      1873.8074     -1.0062386    
     19700   292.64343     -2037.6059      1298.8828      1878.2204      16.550112    
     19800   297.84694     -2036.0118      1287.5493      1915.013       12.813388    
     19900   305.25949     -2028.0285      1265.3568      1967.09       -9.3559755    
     20000   299.86869     -2050.7439      1311.8707      1942.6816      17.166811    
     20100   304.62633     -2069.3072      1270.8731      1925.6656      13.118125    
     20200   302.61344     -2063.3833      1277.505       1920.2213      7.5831136    
     20300   303.40502     -2076.9408      1295.422       1931.6594      13.627567    
     20400   303.88061     -2077.6564      1302.2849      1942.0596     -6.6700952    
     20500   301.73008     -2086.7498      1260.598       1872.0484      23.866898    
     20600   297.72426     -2084.5005      1296.8497      1874.7275      12.725883    
     20700   303.55148     -2068.3627      1291.3546      1937.4798      10.272661    
     20800   302.42955     -2097.2053      1278.5448      1885.7946      7.3962854    
     20900   300.13424     -2094.9955      1311.7116      1900.6455      2.4345038    
     21000   299.68771     -2090.5688      1290.3081      1879.6758      21.387356    
     21100   307.10658     -2091.8438      1289.4064      1943.8418      8.8814538    
     21200   299.68121     -2082.7794      1258.225       1855.3239     -12.932915    
     21300   298.90732     -2084.2498      1281.079       1869.787       2.2677685    
     21400   304.28643     -2088.5846      1282.7462      1915.2217      1.9563094    
     21500   289.60629     -2097.7606      1295.2014      1787.2248      16.933327    
     21600   308.41661     -2093.1269      1286.6371      1951.5042      13.39787     
     21700   300.0009      -2118.9497      1309.2102      1872.9976      11.241348    
     21800   296.21562     -2125.7589      1255.1826      1778.3111     -3.1789011    
     21900   309.35902     -2134.5535      1309.2865      1941.1544     -5.7906453    
     22000   299.71321     -2117.6264      1279.5844      1842.1224      11.45979     
     22100   305.94979     -2130.5781      1308.4466      1913.8031      11.424614    
     22200   300.32482     -2133.4771      1247.4223      1799.5789     -4.4857783    
     22300   297.38657     -2126.8397      1296.0103      1828.5292     -0.10854705   
     22400   301.40546     -2129.2415      1210.1829      1776.2387      28.426888    
     22500   302.62888     -2140.8061      1263.5148      1828.9463      13.218345    
     22600   289.07279     -2153.7765      1260.0539      1691.2906      4.9620408    
     22700   303.21151     -2139.6532      1322.2793      1894.0739      3.1482302    
     22800   298.69734     -2161.101       1278.6916      1788.6706     -1.0497813    
     22900   297.79899     -2159.0567      1310.5744      1814.5644      2.4761162    
     23000   291.31284     -2156.8375      1292.245       1740.4522     -17.044534    
     23100   291.28008     -2160.525       1310.7772      1755.0039     -2.9888114    
     23200   306.11694     -2164.5039      1333.7367      1906.6622      12.511106    
     23300   299.42134     -2172.3982      1275.4167      1780.573       23.863207    
     23400   298.06635     -2154.3259      1314.0455      1825.1571      9.9722617    
     23500   296.74958     -2153.4299      1333.4083      1833.6407      12.693077    
     23600   304.36365     -2171.3237      1279.9013      1830.3283      22.856531    
     23700   299.61522     -2176.4528      1258.0429      1760.8782      24.345227    
     23800   304.24097     -2187.1425      1311.7508      1845.262       2.6242546    
     23900   298.29713     -2176.2549      1248.6889      1739.9352     -7.9640982    
     24000   303.19038     -2192.2688      1307.6427      1826.6327      13.320519    
     24100   305.79043     -2194.4866      1310.0103      1850.0332      20.378459    
     24200   302.41233     -2200.2962      1303.282       1807.2869     -8.2028926    
     24300   298.05459     -2202.6939      1271.1022      1733.7406     -13.854283    
     24400   302.73744     -2202.0497      1243.7691      1748.9279     -8.3036839    
     24500   304.08152     -2231.5071      1276.4392      1764.1598      16.213956    
     24600   298.76162     -2235.7333      1285.5695      1721.491      -19.662383    
     24700   301.56311     -2243.4417      1292.2558      1745.5212      3.3998585    
     24800   299.54539     -2274.6016      1253.131       1657.1931      14.613628    
     24900   296.38765     -2283.9178      1289.8352      1656.3433      7.4814574    
     25000   301.90162     -2290.2429      1317.246       1726.7373     -17.050628    
     25100   303.41865     -2314.2908      1338.9902      1737.9995     -6.310277     
     25200   290.78136     -2310.8539      1311.0555      1600.4936      26.707782    
     25300   303.09674     -2304.0964      1257.841       1664.1661     -7.0230401    
     25400   294.15527     -2305.6441      1262.3773      1587.1962      4.0867476    
     25500   301.69963     -2310.6237      1317.3926      1704.6968     -15.75417     
     25600   301.46824     -2301.8042      1290.3773      1684.4318      10.472472    
     25700   295.83074     -2305.6553      1275.8978      1615.6883      6.5413246    
     25800   298.74567     -2325.6308      1330.2128      1676.0943     -0.52232533   
     25900   299.21324     -2338.0299      1274.5189      1612.1826      4.5734372    
     26000   300.46956     -2333.8739      1286.6014      1639.6556      5.8589138    
     26100   299.4097      -2335.1376      1248.6791      1590.9918     -11.577252    
     26200   296.69753     -2337.8792      1274.1537      1589.4715      16.359664    
     26300   297.00023     -2336.8906      1251.739       1570.7522      9.1590736    
     26400   302.76506     -2335.5264      1316.5327      1688.4617      10.363498    
     26500   301.18309     -2357.7572      1328.8158      1664.3674      14.352838    
     26600   298.78063     -2350.6314      1272.5074      1593.7009      7.6797102    
     26700   299.82249     -2374.8493      1216.5388      1522.8311      10.136473    
     26800   298.65223     -2377.1788      1308.1103      1601.6082      5.2100449    
     26900   299.54692     -2363.6168      1280.9723      1596.0329      3.5432322    
     27000   298.3055      -2351.5196      1281.3731      1597.4296      10.719988    
     27100   303.87831     -2380.4643      1257.5631      1594.5093      11.358359    
     27200   301.24894     -2428.0171      1308.6302      1574.5107     -17.656913    
     27300   304.79738     -2437.6533      1299.9295      1587.9055     -9.6612024    
     27400   301.51231     -2465.8669      1261.6259      1492.0117     -11.070613    
     27500   294.25687     -2449.6619      1289.7495      1471.4591      2.3044233    
     27600   297.9762      -2462.0016      1291.1646      1493.7943      34.332531    
     27700   294.36123     -2468.709       1253.3964      1416.9921      2.1867827    
     27800   300.05948     -2455.184       1291.1555      1519.2325     -14.489519    
     27900   297.22534     -2463.2134      1323.6112      1518.3146     -27.518812    
     28000   292.69176     -2456.0137      1259.5837      1420.9456     -22.849552    
     28100   296.42967     -2467.1016      1318.7908      1502.4909      2.3707538    
     28200   296.67257     -2472.5615      1247.6203      1428.0325      2.0128408    
     28300   303.47549     -2487.9473      1248.5322      1474.3932      9.5835178    
     28400   297.92842     -2504.0513      1269.4209      1429.5737      11.309326    
     28500   301.14148     -2496.2513      1265.9232      1462.6084      3.309636     
     28600   305.48747     -2512.9058      1298.2091      1517.1037      28.165798    
     28700   292.38951     -2509.5072      1298.4887      1403.6543      16.138676    
     28800   299.97328     -2517.4618      1298.4887      1463.517       18.159668    
     28900   300.80248     -2520.5333      1292.268       1461.6399     -11.060922    
     29000   308.19519     -2509.0858      1304.2042      1551.1324     -8.0923802    
     29100   297.13921     -2524.7379      1263.3397      1395.7486     -11.254506    
     29200   298.7424      -2512.6925      1305.4043      1464.1949      15.080861    
     29300   292.38902     -2521.3915      1256.6713      1349.9481     -24.753384    
     29400   310.80281     -2523.4512      1252.4599      1508.3411      2.5643019    
     29500   295.7042      -2522.2293      1265.3178      1387.4026      7.2236812    
     29600   299.50522     -2547.1673      1335.6148      1466.752      -7.5966201    
     29700   301.24049     -2537.5995      1324.7591      1480.9817      33.317914    
     29800   306.45479     -2541.8702      1249.8823      1448.4627      28.329138    
     29900   288.90407     -2535.5018      1301.7452      1349.7478      15.562924    
     30000   305.34755     -2542.8395      1268.8637      1456.5732      20.921386    
     30100   299.65457     -2538.6389      1267.9102      1408.9114      28.905308    
     30200   302.25658     -2555.6439      1299.7607      1447.0251      4.1479638    
     30300   302.13336     -2558.7204      1255.7805      1398.8666      13.305655    
     30400   296.31945     -2586.7982      1268.1367      1331.1544     -7.1345681    
     30500   293.13185     -2588.8727      1326.6388      1359.0772     -0.12771816   
     30600   294.03869     -2578.5376      1304.3295      1355.2123      17.158235    
     30700   295.71315     -2590.3686      1302.3224      1356.348       8.7568274    
     30800   301.42495     -2585.1357      1317.2442      1427.58        14.033213    
     30900   300.65202     -2601.6623      1296.7195      1383.6168     -23.653838    
     31000   301.64682     -2625.1147      1296.4592      1368.8002     -4.6140735    
     31100   308.76043     -2615.8041      1256.6196      1401.8841      15.241389    
     31200   300.74673     -2618.7016      1280.9348      1351.6398     -6.6596202    
     31300   298.70674     -2624.5419      1309.3183      1355.9406     -6.1672076    
     31400   306.84698     -2616.643       1229.7348      1357.0496      28.209003    
     31500   296.15684     -2639.7845      1281.2308      1289.8081      14.799442    
     31600   305.65964     -2632.0089      1295.0066      1396.3377      40.794062    
     31700   307.5521      -2637.4434      1321.7264      1434.5462      0.74217233   
     31800   307.8813      -2643.8533      1266.6525      1376.0062      17.896389    
     31900   297.45963     -2646.4039      1281.1068      1294.7148     -3.9609466    
     32000   299.26575     -2660.6525      1294.7967      1310.3073      20.219703    
     32100   300.3798      -2678.2082      1251.2773      1259.1945      4.9009372    
     32200   298.53412     -2725.5996      1283.1569      1227.1778     -17.449643    
     32300   301.08315     -2705.7021      1263.3728      1250.0857      17.978923    
     32400   293.94547     -2712.9952      1307.8825      1223.4741     -2.6467883    
     32500   305.28878     -2711.3565      1337.2513      1355.9184      15.494203    
     32600   293.46763     -2720.1009      1233.7031      1137.916       18.19701     
     32700   302.36514     -2744.3048      1270.5837      1230.1581     -3.2256015    
     32800   305.40652     -2737.8214      1278.3417      1271.5967      38.825064    
     32900   294.52722     -2742.3315      1274.85        1166.3075     -11.675622    
     33000   303.13107     -2748.5911      1270.6717      1232.8089      0.69412697   
     33100   302.64074     -2754.1866      1344.496       1296.6531     -3.8733723    
     33200   296.91092     -2746.6695      1238.3622      1146.7979      14.187148    
     33300   300.63582     -2769.2011      1258.6782      1177.892      -2.8780568    
     33400   298.92486     -2766.233       1252.5253      1159.407       14.961181    
     33500   298.29604     -2799.3605      1268.91        1137.041       8.6808285    
     33600   303.95757     -2782.5259      1238.7606      1174.3541     -6.6294408    
     33700   295.14912     -2770.2937      1333.4261      1202.4827      27.088457    
     33800   289.94386     -2784.2116      1281.3685      1089.9596      18.864932    
     33900   296.74371     -2778.1841      1282.3348      1157.7606      5.7279495    
     34000   300.90612     -2774.6843      1271.0109      1187.1586     -2.4557376    
     34100   296.71394     -2782.9766      1253.0745      1123.4416      8.2698552    
     34200   304.78622     -2783.5022      1267.5792      1209.6065     -22.672947    
     34300   305.52286     -2773.5387      1285.8261      1244.4042      13.88437     
     34400   300.00389     -2774.8048      1315.0193      1222.9784     -7.9156709    
     34500   299.80037     -2772.2383      1269.2629      1177.9684     -25.048737    
     34600   303.4291      -2770.1237      1270.7755      1214.0453      7.0836563    
     34700   305.96016     -2762.5211      1277.2968      1250.8031      10.053507    
     34800   308.66618     -2784.2625      1281.8232      1257.7865     -13.588609    
     34900   295.75311     -2789.7712      1277.9378      1132.9182      20.8461      
     35000   296.84033     -2773.3719      1326.5083      1207.6103      4.2551777    
     35100   295.68496     -2788.6229      1242.3511      1097.8702      0.72718346   
     35200   297.96848     -2790.6245      1271.3632      1145.3011      14.659345    
     35300   302.71976     -2789.7353      1269.1429      1186.4579     -1.0292866    
     35400   292.12003     -2778.3934      1313.9682      1147.8377     -17.291493    
     35500   305.46728     -2785.1409      1256.4729      1202.9519     -4.8960535    
     35600   298.8166      -2795.5995      1239.8276      1116.3746      11.881772    
     35700   300.80146     -2800.1517      1292.588       1182.3324      7.6785265    
     35800   306.17324     -2817.1445      1225.3466      1146.135      -3.1024794    
     35900   301.23639     -2836.2071      1289.3472      1146.9255     -15.850261    
     36000   293.8984      -2851.7858      1287.7421      1064.1222      28.998368    
     36100   302.76712     -2846.6102      1250.2716      1111.1351      47.391594    
     36200   297.07566     -2849.4588      1240.4231      1047.5426      19.141898    
     36300   305.8702      -2905.3919      1305.6664      1135.4974      4.5458718    
     36400   296.24591     -2915.0923      1309.4432      1043.5093     -13.404001    
     36500   302.16733     -2922.9106      1309.9925      1089.1922      9.2829307    
     36600   307.64929     -2952.5399      1306.4644      1105.0567     -23.57659     
     36700   289.41025     -2967.6896      1277.8259      898.1672       18.254351    
     36800   299.93309     -2966.9771      1305.4276      1020.5813     -18.159784    
     36900   298.24363     -2969.0684      1301.7225      999.67684      21.355236    
     37000   292.15509     -2972.1977      1292.4798      932.85852     -12.199086    
     37100   307.21247     -2971.8165      1253.9735      1029.3831     -10.293986    
     37200   304.69134     -2973.9452      1272.7346      1023.4704     -10.983179    
     37300   303.5803      -2952.9236      1226.5219      988.34395      8.1736126    
     37400   300.19188     -2971.73        1231.3399      944.05479      10.66916     
     37500   303.08606     -2979.3502      1282.6804      1013.6561     -10.311169    
     37600   303.23473     -2996.1686      1291.3201      1006.8069     -21.562764    
     37700   310.05199     -2998.7041      1300.7607      1074.6748      35.929944    
     37800   303.48731     -2983.349       1301.6254      1032.1905      11.982784    
     37900   298.54071     -2991.6979      1290.6259      968.60745      30.988599    
     38000   301.45185     -3019.2068      1269.2453      945.75064     -6.5516222    
     38100   298.21698     -3017.7646      1240.3514      889.37126      5.0688535    
     38200   312.06574     -3001.7002      1247.9331      1036.859       17.414955    
     38300   299.09401     -3013.0856      1233.5057      895.04733      13.418476    
     38400   298.34258     -3001.5922      1243.4731      909.78865     -3.2345038    
     38500   294.38281     -3011.4449      1262.586       883.63875      10.467771    
     38600   307.13429     -3006.9356      1320.9647      1060.5561      4.4779937    
     38700   296.79804     -3005.4908      1321.6345      970.23941      14.876813    
     38800   292.93074     -3030.3037      1313.3703      902.57923      26.499793    
     38900   301.47924     -3000.2564      1269.021       964.72165      16.205334    
     39000   310.7544      -3014.2287      1281.0526      1045.7235     -8.0645276    
     39100   310.17657     -3005.6152      1351.8757      1119.9928      12.335331    
     39200   298.40255     -3008.584       1279.6488      939.50872     -5.9396946    
     39300   299.94581     -3017.4629      1286.8209      951.60251      9.8675231    
     39400   296.34766     -3018.5105      1281.0684      912.62615     -3.4189892    
     39500   302.16164     -3038.812       1262.9607      926.20805      2.9379241    
     39600   300.6762      -3016.1113      1285.0952      957.75984     -3.2143738    
     39700   297.17129     -3035.9242      1222.1934      843.70267      16.17019     
     39800   298.69537     -3040.2327      1285.6094      916.43917      16.418865    
     39900   295.55633     -3034.1252      1230.6358      839.50247      31.478449    
     40000   296.53892     -3042.8685      1321.0914      930.00141     -15.415029    
     40100   299.60208     -3032.9711      1336.4949      982.69444      18.368779    
     40200   295.53949     -3033.7656      1289.7453      898.8209      -32.675725    
     40300   298.88233     -3047.1923      1254.8383      880.38034     -14.986184    
     40400   306.87748     -3042.5855      1230.1325      931.77744     -26.714838    
     40500   300.18353     -3028.7202      1241.9789      897.62888     -15.104755    
     40600   302.13865     -3052.9732      1277.2285      926.10908     -4.1856575    
     40700   299.37048     -3033.8943      1278.6992      921.9045      -3.2380107    
     40800   299.52138     -3032.042       1232.2455      878.65256      23.754449    
     40900   305.0281      -3041.3072      1253.0229      939.40821      22.656192    
     41000   299.59545     -3035.982       1284.0136      927.14292      33.374326    
     41100   286.89295     -3035.2694      1307.8633      838.11411      30.096741    
     41200   301.4866      -3033.5076      1287.0931      949.60837      14.123511    
     41300   295.38045     -3043.0061      1299.0259      897.43876      21.312954    
     41400   300.02246     -3054.7772      1276.803       904.9556      -18.576777    
     41500   296.18452     -3035.5845      1254.2083      867.23316      14.135016    
     41600   307.92367     -3043.4018      1332.358       1042.542       8.7801327    
     41700   297.91978     -3052.2246      1270.1154      882.01764      11.588662    
     41800   294.956       -3043.9945      1254.5206      848.14943     -0.78957048   
     41900   300.86874     -3049.9606      1279.3901      919.92713      25.429431    
     42000   303.77116     -3036.8961      1264.5014      944.05764      2.7078714    
     42100   302.73585     -3036.5927      1292.1178      962.71933      38.474411    
     42200   300.52352     -3018.6174      1205.1809      873.97413      22.205166    
     42300   303.61586     -3066.1021      1254.5173      903.47883     -6.2161642    
     42400   302.3119      -3095.9097      1328.5678      936.06118      16.371775    
     42500   300.33383     -3085.2491      1215.933       816.39814     -7.8265323    
     42600   299.36082     -3088.3504      1246.1556      834.81845     -11.639871    
     42700   300.72218     -3075.6235      1258.6906      872.25418      37.228043    
     42800   299.63301     -3114.8993      1272.9841      837.53205     -14.331501    
     42900   303.15054     -3130.5331      1311.1206      891.49003     -6.0342734    
     43000   302.77761     -3130.4018      1292.6626      869.82839      12.196252    
     43100   299.87311     -3110.0542      1234.2124      805.75255      22.007706    
     43200   298.04236     -3132.568       1311.6118      844.26679      23.664808    
     43300   301.00118     -3122.3983      1277.8801      847.16376      22.922357    
     43400   299.7013      -3125.6759      1273.7941      828.17608     -3.53049      
     43500   298.6501      -3133.0068      1253.5389      791.18977      6.8119728    
     43600   296.80438     -3132.3142      1280.7267      802.56494      22.956945    
     43700   298.60301     -3148.6551      1271.3941      792.97558      5.7380918    
     43800   303.21378     -3165.0792      1267.0223      813.41115      4.0896373    
     43900   300.53098     -3175.0539      1268.8631      781.28653      1.9319765    
     44000   292.12667     -3168.9248      1311.2467      754.64436     -33.494482    
     44100   308.59777     -3193.207       1244.5938      811.00081     -1.7448541    
     44200   303.09969     -3216.5026      1285.0383      778.98357     -4.276435     
     44300   312.3803      -3226.6847      1265.0399      831.7942      -15.641163    
     44400   295.15327     -3223.3287      1298.1112      714.17004      0.36787365   
     44500   301.30399     -3225.6262      1304.9641      773.7278       13.222912    
     44600   294.75024     -3218.6763      1278.7479      695.85505     -4.104285     
     44700   308.41744     -3217.9547      1253.6532      793.69986      36.039226    
     44800   294.59838     -3230.7181      1255.2959      659.00321      7.818057     
     44900   291.2399      -3224.335       1269.9691      650.02657     -6.2795045    
     45000   299.58282     -3220.2696      1252.7072      711.43607     -24.758789    
     45100   308.17048     -3239.5608      1341.1942      857.42636      1.1921222    
     45200   301.12848     -3246.2556      1251.1991      697.76386      17.20836     
     45300   298.79784     -3250.2859      1263.3474      685.04021      5.4697734    
     45400   294.55193     -3236.2563      1272.8197      670.57345     -1.0611131    
     45500   305.24502     -3265.7325      1219.6626      683.56233      15.515224    
     45600   297.94535     -3252.3082      1263.6502      675.69745      8.3167476    
     45700   304.10702     -3252.9365      1317.6969      784.21612      13.388692    
     45800   290.92092     -3253.9765      1256.3411      603.90455     -4.0698235    
     45900   296.23849     -3258.0504      1265.0649      656.10649      6.9859362    
     46000   300.39154     -3262.1687      1226.9437      651.00546      15.926883    
     46100   307.45293     -3270.1806      1265.0736      744.26944      11.425025    
     46200   298.24932     -3240.5344      1222.9944      649.53372      37.504885    
     46300   298.04846     -3260.4223      1278.4387      683.29387      0.90167496   
     46400   301.56001     -3254.8417      1234.7758      676.61335      23.042439    
     46500   302.88444     -3267.4323      1269.8498      710.94044      3.9806496    
     46600   308.85226     -3263.39        1281.8874      780.38715      49.020864    
     46700   301.86889     -3304.1779      1326.2465      721.51002     -0.11282549   
     46800   303.36676     -3315.2725      1274.644       672.20757      4.6670351    
     46900   302.49709     -3316.7719      1286.7745      675.06176      7.8044097    
     47000   306.72303     -3317.066       1265.9845      691.76778     -5.1983176    
     47100   308.34602     -3328.7071      1302.3021      730.95774      32.418605    
     47200   295.17971     -3330.6747      1246.9317      555.88095      18.90478     
     47300   294.65645     -3328.439       1270.534       577.03968     -4.6639157    
     47400   303.32136     -3328.6262      1297.3818      681.18559      8.6861373    
     47500   303.61459     -3350.5965      1257.0046      621.46037      3.8798304    
     47600   310.45845     -3351.7415      1280.9811      705.49259     -10.771594    
     47700   300.71814     -3353.5138      1260.8324      596.46948     -3.4350649    
     47800   297.2222      -3357.6961      1222.3007      522.49341     -26.828588    
     47900   306.37284     -3352.9582      1283.7045      670.46399      8.045319     
     48000   298.81839     -3363.0571      1270.9099      580.01541      6.5525339    
     48100   302.43282     -3383.8555      1266.2564      586.88532      8.9599483    
     48200   291.44095     -3376.6105      1290.8946      520.47441      13.918033    
     48300   303.49046     -3371.6668      1306.6612      648.93663     -1.525347     
     48400   300.53829     -3374.1275      1274.2413      587.6565       9.1936598    
     48500   300.80212     -3384.6495      1277.5293      582.78177      23.195109    
     48600   311.2         -3351.2009      1317.6432      749.32657     -21.427771    
     48700   298.58129     -3388.1171      1269.8081      551.7333      -22.659699    
     48800   297.60568     -3390.0269      1247.45        518.74105     -7.1002977    
     48900   304.00517     -3383.8576      1324.274       658.9615       20.068088    
     49000   309.12473     -3388.9874      1297.7603      673.09909     -0.88610505   
     49100   300.97682     -3398.2799      1295.552       588.73624      2.5988504    
     49200   301.26146     -3401.6498      1234.8046      527.16439      14.355866    
     49300   299.93934     -3403.7689      1306.1628      584.58055      3.1444793    
     49400   296.54181     -3400.3996      1245.1101      496.51493      9.6602326    
     49500   293.70542     -3417.3009      1271.3197      480.45888      8.2836596    
     49600   293.72584     -3432.3229      1291.8639      486.16382     -22.987458    
     49700   301.07583     -3432.5324      1272.5714      532.38853      34.935387    
     49800   297.59979     -3436.0416      1334.6654      559.88916     -2.3570138    
     49900   303.35404     -3424.8495      1255.3164      543.18928      0.65037937   
     50000   302.21938     -3436.1706      1244.9679      511.373        7.2840933    
     50100   297.60338     -3426.642       1256.6531      491.30848      3.0079401    
     50200   296.90687     -3430.4018      1271.4188      496.08593     -11.309624    
     50300   300.32779     -3426.0513      1246.0662      505.67528     -6.1878087    
     50400   296.92756     -3439.4256      1259.9644      475.7928       10.379568    
     50500   296.58212     -3446.4808      1212.4541      418.13817     -4.8396908    
     50600   300.72827     -3445.5525      1309.2219      552.911       -13.161975    
     50700   296.98257     -3448.0661      1250.4609      458.14064      8.4126615    
     50800   292.13296     -3451.2648      1276.6689      437.78262      4.7318563    
     50900   303.51572     -3449.4949      1282.4754      547.14854     -16.909778    
     51000   302.17053     -3444.225       1247.4947      505.40852      25.44342     
     51100   294.29325     -3441.7754      1298.826       488.74739      8.9104363    
     51200   291.79458     -3476.8998      1329.7104      462.16329      18.875665    
     51300   301.36053     -3456.338       1226.3355      464.89299      4.4822805    
     51400   296.08792     -3474.3904      1277.8665      451.22168      7.2451628    
     51500   292.73644     -3495.833       1332.8838      454.82596      7.598697     
     51600   302.38028     -3497.6856      1274.7397      481.06859     -8.4678742    
     51700   303.92273     -3497.9892      1244.2282      464.04677     -9.0306694    
     51800   301.49128     -3508.8509      1251.9616      439.17536      12.255605    
     51900   294.78325     -3502.1546      1247.9638      381.88775      3.319211     
     52000   300.93994     -3492.4044      1267.3483      466.07823      5.0751047    
     52100   298.63127     -3528.4504      1238.0137      380.05258      14.277852    
     52200   298.07271     -3522.1203      1294.3015      437.67563      1.664075     
     52300   297.18197     -3497.8216      1256.4952      416.20259      10.231424    
     52400   307.89009     -3517.3102      1246.8111      482.7865      -5.8602632    
     52500   297.11634     -3531.0141      1253.4532      379.38123      33.441882    
     52600   301.17779     -3537.7966      1229.325       384.78969     -13.828174    
     52700   296.73395     -3517.3812      1245.8596      382.00096     -7.1248431    
     52800   302.05969     -3548.4132      1215.8543      368.58876      24.189812    
     52900   294.74414     -3562.7084      1250.5849      323.60539     -6.2751214    
     53000   302.238       -3559.7928      1298.4161      441.36549     -21.130646    
     53100   301.73871     -3560.2017      1332.7721      470.84768     -29.221603    
     53200   299.42553     -3564.8601      1254.7023      367.43408      20.975202    
     53300   296.27502     -3575.4597      1282.974       356.93294      14.699358    
     53400   301.29798     -3576.6751      1248.0561      365.71723     -5.4723841    
     53500   298.23018     -3573.728       1280.4976      373.6721       38.443419    
     53600   306.31874     -3578.22        1255.3841      416.39805      22.013679    
     53700   301.56953     -3550.6221      1257.6356      403.77798     -0.72616366   
     53800   303.88539     -3582.9267      1267.4076      401.9547       8.0658077    
     53900   295.45992     -3581.6875      1265.3613      325.80359      6.8526638    
     54000   309.7006      -3582.667       1265.1888      451.9978      -0.8958585    
     54100   295.55726     -3605.8626      1258.1358      295.27334      10.170382    
     54200   298.52388     -3601.3165      1271.6341      339.8466       28.974516    
     54300   298.77978     -3610.1981      1265.7712      327.39036      13.018118    
     54400   297.48327     -3614.2214      1291.3101      337.31203      4.7671335    
     54500   298.64974     -3581.9545      1278.368       367.06799      3.7669367    
     54600   301.17592     -3608.6599      1287.7196      372.30435     -7.0124499    
     54700   292.69271     -3600.4875      1322.323       339.21959      3.1735962    
     54800   301.30612     -3601.793       1272.7822      365.39817      1.1891525    
     54900   297.08325     -3600.0334      1279.795       336.40769     -25.915712    
     55000   297.46629     -3613.5065      1256.4225      302.98755      22.028929    
     55100   295.98678     -3628.8081      1225.9887      244.02182      1.4659893    
     55200   303.39371     -3618.0229      1275.5703      370.62448     -4.8321003    
     55300   305.08842     -3640.0895      1305.708       393.85036     -21.605834    
     55400   295.99652     -3639.1502      1213.1211      220.89915      10.885429    
     55500   302.9195      -3643.7009      1234.0534      299.18901     -11.825885    
     55600   302.1826      -3687.3889      1283.1433      298.00122     -16.376356    
     55700   298.67435     -3673.5326      1278.7541      276.09599      12.384104    
     55800   299.80353     -3690.1525      1269.84        260.65969     -11.318921    
     55900   304.72937     -3692.1898      1309.5726      342.40387      6.9523283    
     56000   307.04413     -3698.2969      1294.2374      341.66126      8.7140411    
     56100   298.92857     -3688.0024      1280.3799      265.52525      35.404619    
     56200   304.35026     -3707.4596      1271.7323      285.90365      10.989649    
     56300   300.53083     -3694.7598      1327.1738      319.89002     -8.9962474    
     56400   295.13733     -3688.8764      1278.4035      228.77197      9.7586656    
     56500   299.66707     -3702.3917      1293.317       270.6771       27.905838    
     56600   292.86334     -3699.0407      1287.6452      207.5145      -8.5059179    
     56700   298.91028     -3707.635       1262.2023      227.55162      1.0392741    
     56800   299.75241     -3716.8187      1300.9564      264.65265     -4.002295     
     56900   290.0567      -3734.2194      1275.4523      135.04463     -1.7096113    
     57000   299.80972     -3746.6222      1241.2561      175.66139      24.927096    
     57100   299.50883     -3731.8583      1302.6845      249.163        36.525428    
     57200   298.77699     -3720.2071      1274.5355      226.12072      29.595702    
     57300   296.77527     -3732.0051      1315.3728      237.25976     -0.75274754   
     57400   298.65438     -3736.8535      1292.1334      225.97578     -7.9121476    
     57500   294.54151     -3750.6854      1296.6385      179.87002     -6.6937607    
     57600   301.48599     -3741.5369      1282.2318      236.71235      12.372041    
     57700   304.21393     -3748.7727      1276.0288      247.66795     -9.4068227    
     57800   287.51653     -3760.2119      1250.3731      61.257694     -2.4737968    
     57900   301.18516     -3775.11        1222.2482      140.46544     -7.1509589    
     58000   301.20157     -3740.5626      1269.5197      222.43105     -19.505021    
     58100   302.8451      -3777.9454      1259.1518      189.37747      7.6344871    
     58200   300.9839      -3789.4364      1285.3449      187.43609     -5.2914251    
     58300   305.12119     -3777.2922      1321.4749      272.70766     -43.515874    
     58400   294.83476     -3771.6959      1309.9121      174.75543     -9.3022302    
     58500   297.23896     -3800.4337      1277.3841      134.9891       15.433255    
     58600   309.83767     -3796.5285      1259.313       233.48622      31.469817    
     58700   294.58288     -3818.1817      1282.388       98.493149     -7.8773879    
     58800   296.20951     -3816.3325      1229.5632      62.063532     -6.2703092    
     58900   286.78231     -3808.5838      1245.484       1.4309142     -1.2338755    
     59000   301.74946     -3802.2589      1274.4759      170.59043      14.09284     
     59100   297.84588     -3834.8181      1282.9006      111.5485       26.849326    
     59200   302.06741     -3812.1679      1245.4016      134.45038      27.484878    
     59300   302.71222     -3821.1649      1277.5032      163.32121      10.84167     
     59400   308.87058     -3839.9546      1280.5459      202.64486      1.2985308    
     59500   298.55546     -3847.8908      1260.9398      82.860239     -27.386532    
     59600   296.93511     -3845.9801      1276.0466      85.38798       13.979977    
     59700   293.52344     -3841.8043      1342.3667      125.37528     -32.854121    
     59800   303.65896     -3851.5028      1259.2699      123.21612      5.2300968    
     59900   298.11997     -3848.9517      1209.9132      26.878424      17.85967     
     60000   299.40548     -3857.963       1257.7067      77.156284      18.988114    
     60100   291.65709     -3845.1066      1279.1478      42.164405     -2.9159588    
     60200   295.82109     -3862.2864      1273.8226      56.895731      3.1403798    
     60300   300.89797     -3847.9733      1301.1694      143.9552      -32.479977    
     60400   299.92934     -3868.0967      1257.9311      71.931563      33.823691    
     60500   294.58735     -3864.0786      1251.9225      22.170765     -3.5983077    
     60600   305.37934     -3843.9135      1248.3659      135.28585     -24.228313    
     60700   303.6285      -3857.5738      1277.9853      135.58807     -20.230404    
     60800   309.75183     -3855.3601      1324.5687      239.14268     -3.7774721    
     60900   305.26708     -3870.9706      1243.061       101.92002     -15.639437    
     61000   298.98889     -3884.6711      1289.6785      78.694641     -6.434057     
     61100   302.87141     -3871.1357      1285.3846      122.65531     -32.703936    
     61200   299.64879     -3874.9145      1318.1869      122.86076      0.74425629   
     61300   290.98126     -3905.3543      1300.0107     -3.2640192      10.316488    
     61400   302.97589     -3898.5025      1278.1892      89.027409      45.785237    
     61500   293.21922     -3903.2972      1256.8912     -24.313644      5.8745628    
     61600   289.59316     -3926.4703      1275.0677     -61.735976     -7.2567282    
     61700   302.85277     -3917.2655      1267.8509      58.825128      28.957348    
     61800   289.90335     -3935.7231      1302.5328     -40.749866      14.047679    
     61900   302.81777     -3954.4594      1203.5317     -43.001007      16.603781    
     62000   300.19527     -3947.863       1223.8236     -39.56417       9.9008641    
     62100   300.30971     -3972.896       1272.0327     -15.364587      17.60482     
     62200   297.12892     -3969.381       1354.2318      41.905395      33.337589    
     62300   293.44256     -3967.8975      1314.2508     -29.557094      14.475979    
     62400   294.45742     -3970.913       1262.1761     -75.572004      19.427727    
     62500   308.02004     -3977.2983      1312.4821      89.631491      37.021232    
     62600   295.15592     -3990.6856      1274.9293     -76.345067      8.9380067    
     62700   298.41464     -3987.112       1305.0907     -13.469187      2.0733387    
     62800   303.66851     -3969.1667      1266.1626      12.530384      0.17018977   
     62900   299.25137     -3988.2706      1226.1956     -86.040613      20.876044    
     63000   303.18113     -3988.6553      1324.2767      46.797402      11.675936    
     63100   301.16597     -3994.1315      1254.4283     -46.547565      43.109186    
     63200   296.15175     -3989.7088      1265.5823     -75.810208      35.125495    
     63300   306.01276     -3997.2723      1261.228       0.45342565     7.8590938    
     63400   292.33806     -4005.4138      1236.9182     -154.28294      5.3375265    
     63500   302.87464     -4004.5508      1215.5191     -80.596426      14.574223    
     63600   295.09242     -3994.1274      1299.5335     -55.750511      13.553756    
     63700   306.21865     -3986.9922      1229.8888     -18.764376      17.465462    
     63800   303.47746     -4007.7811      1244.2953     -49.659805      8.0240445    
     63900   309.2159      -4004.9299      1229.4727     -10.315589      7.9878587    
     64000   297.07592     -4015.6301      1254.9095     -104.13993      20.326251    
     64100   296.58196     -4014.1196      1256.7415     -105.21468     -6.0730653    
     64200   302.0078      -4008.6722      1248.4811     -59.507398     -24.67173     
     64300   303.20756     -3998.7982      1248.9231     -38.462664      3.9740534    
     64400   299.49415     -3996.6354      1273.3475     -45.082418     -6.6473373    
     64500   302.63108     -3986.5146      1309.8589      29.601655      1.148954     
     64600   296.52272     -4015.8514      1331.5825     -32.635216      22.239883    
     64700   303.42582     -4044.5704      1249.9401     -81.266022      2.9004266    
     64800   303.67713     -4036.3709      1304.7807     -15.978712      34.582734    
     64900   305.80927     -4021.6501      1220.6096     -66.362508      44.77145     
     65000   301.41397     -4020.5406      1259.1923     -65.975002      21.493357    
     65100   299.30954     -4029.9499      1275.9226     -77.472752      11.381455    
     65200   294.53883     -4046.9247      1278.1941     -134.83769      14.690709    
     65300   292.69218     -4051.9574      1286.7386     -147.83939     -18.520654    
     65400   295.53932     -4051.2977      1275.728      -132.72997      44.908656    
     65500   304.35655     -4045.5447      1318.4457     -5.4118158     -16.703451    
     65600   299.30119     -4033.14        1347.6768     -8.983254       14.912189    
     65700   290.51549     -4043.856       1263.5533     -182.38817      8.8156911    
     65800   301.07665     -4057.9938      1235.4763     -130.16061     -10.248927    
     65900   297.75268     -4076.8809      1298.515      -115.7333       12.440482    
     66000   300.69484     -4051.2818      1272.7922     -89.547039      4.2554197    
     66100   307.9573      -4057.8281      1304.9891      1.0476972      24.53536     
     66200   294.7511      -4053.7156      1297.2687     -120.65583      6.9282819    
     66300   297.95298     -4085.6643      1280.7596     -140.48098     -19.763733    
     66400   305.55368     -4064.7634      1248.1119     -84.259012     -20.956436    
     66500   299.84596     -4059.5688      1244.7169     -133.50034     -8.2984772    
     66600   292.91854     -4057.9243      1271.9459     -166.57481     -1.9357044    
     66700   298.61713     -4078.2374      1209.6102     -198.26437      21.635946    
     66800   296.60002     -4109.3542      1247.774      -209.2552       4.4787136    
     66900   301.91497     -4126.3863      1269.8559     -156.67692      19.514978    
     67000   301.2285      -4108.5439      1261.4378     -153.39133     -9.3484295    
     67100   304.23306     -4133.396       1172.7148     -240.0983       22.416775    
     67200   295.03317     -4132.9749      1242.5607     -252.10077     -25.869444    
     67300   299.89739     -4137.284       1237.954      -217.51855      28.195339    
     67400   291.6431      -4150.9202      1243.1165     -299.80568      30.094459    
     67500   302.36441     -4133.52        1267.6271     -162.02027      19.818172    
     67600   300.5906      -4135.4586      1286.6095     -160.83864     -33.109857    
     67700   304.58776     -4127.8537      1271.5446     -132.5543       14.482333    
     67800   304.12473     -4130.6807      1234.0264     -177.04018      0.88174926   
     67900   295.36851     -4138.5283      1278.8366     -218.37942      19.434747    
     68000   298.30161     -4161.4709      1248.7661     -245.16346     -3.9514298    
     68100   299.5354      -4139.7392      1285.8231     -175.34174      13.510428    
     68200   294.077       -4135.1737      1234.7043     -270.70639      6.7561819    
     68300   298.45073     -4115.1311      1288.5609     -157.69533      44.048537    
     68400   298.33501     -4142.8953      1328.8802     -146.1751      -17.324244    
     68500   298.33032     -4147.1855      1272.9834     -206.40408      5.565516     
     68600   295.92328     -4153.9783      1248.0023     -259.70275     -14.094649    
     68700   301.74156     -4147.3814      1255.2019     -193.87663     -13.524065    
     68800   297.69637     -4166.9061      1239.2372     -265.5399      -22.139503    
     68900   296.81004     -4190.5688      1269.0615     -267.30426     -21.500895    
     69000   296.74293     -4210.1051      1296.5577     -259.94454     -15.83475     
     69100   299.23824     -4229.8315      1260.8436     -293.07079     -21.875543    
     69200   310.87784     -4217.0103      1198.4749     -238.53204      25.799595    
     69300   289.2456      -4231.2303      1254.7371     -389.93458     -10.825041    
     69400   292.31161     -4226.892       1236.6562     -376.25975      19.478877    
     69500   299.99746     -4229.5585      1268.5442     -278.30796      8.24109      
     69600   303.21874     -4222.3307      1284.9138     -225.90447      15.556789    
     69700   301.73319     -4250.5877      1287.7149     -264.64483      10.892495    
     69800   305.396       -4255.0646      1213.4462     -310.63604      0.63470007   
     69900   291.26992     -4240.9915      1258.1181     -378.21239      24.50427     
     70000   302.76211     -4233.0265      1244.5717     -281.02582      31.337801    
     70100   293.83653     -4234.3179      1288.5177     -318.18761      13.510115    
     70200   303.52866     -4245.9329      1259.1477     -272.50142     -11.138003    
     70300   299.80412     -4232.5623      1248.383      -303.20196      6.2768188    
     70400   305.76643     -4250.6032      1242.9165     -273.39173     -0.78650282   
     70500   296.90141     -4248.3569      1274.494      -318.8428      -5.701358     
     70600   302.04126     -4217.6484      1198.0981     -318.5674      -5.3781337    
     70700   309.5349      -4231.3328      1258.005      -205.33354      3.9231457    
     70800   294.08387     -4241.914       1262.2714     -349.81815      21.650497    
     70900   297.26393     -4269.0305      1234.3969     -376.37175     -8.4245905    
     71000   305.96212     -4271.5129      1246.2819     -289.18618      19.145823    
     71100   296.57575     -4295.097       1311.0216     -331.96746      9.2156526    
     71200   292.49037     -4320.5857      1226.6575     -478.35353      1.2585188    
     71300   308.49725     -4319.2884      1223.6009     -336.97247      14.989887    
     71400   298.61913     -4333.0259      1259.0434     -403.60177      26.715682    
     71500   305.54133     -4356.5137      1310.1479     -314.08373      31.781777    
     71600   297.32605     -4359.0149      1272.1637     -428.0338      -14.449252    
     71700   302.41069     -4344.3098      1281.6306     -358.39271     -1.2512243    
     71800   298.00112     -4339.9399      1252.8978     -422.188        10.878907    
     71900   300.19391     -4363.853       1230.7843     -448.60554      5.8646875    
     72000   298.35179     -4353.5044      1235.8451     -449.66924      11.149777    
     72100   297.396       -4348.1132      1309.3964     -379.27396      43.037004    
     72200   304.31562     -4351.3486      1270.4668     -359.56059     -4.73545      
     72300   309.21736     -4354.0869      1280.9646     -307.96769      3.5496824    
     72400   301.47727     -4361.4208      1252.3844     -413.09706     -18.346425    
     72500   298.86523     -4376.9099      1280.1161     -424.21233      6.1542382    
     72600   294.30038     -4404.1706      1262.7992     -509.61086      9.0992418    
     72700   301.95072     -4403.6435      1202.1234     -501.34688      47.610584    
     72800   298.94278     -4381.9149      1259.9432     -448.69668      4.5219775    
     72900   302.81661     -4383.7131      1216.4882     -459.30839      23.727083    
     73000   300.40412     -4396.0536      1297.833      -411.87768     -7.9669277    
     73100   296.83807     -4407.7754      1246.3889     -506.93284     -6.2849486    
     73200   304.03292     -4425.2018      1270.4291     -435.9795      -0.22746039   
     73300   301.86909     -4396.7905      1271.876      -425.47124      0.80560262   
     73400   300.10469     -4445.0606      1248.682      -512.71338      20.564229    
     73500   299.4368      -4440.016       1273.6777     -488.64563      2.4824508    
     73600   295.16492     -4420.1188      1261.7776     -518.84943     -0.92275402   
     73700   299.18967     -4430.1675      1271.4606     -483.22415      24.969858    
     73800   296.04306     -4444.791       1282.9393     -514.50738      10.251815    
     73900   296.82865     -4440.5835      1270.5213     -515.69272      5.5502848    
     74000   298.6739      -4439.9352      1217.3968     -551.6679       34.115262    
     74100   301.37959     -4447.3571      1295.0961     -457.19511      13.58465     
     74200   300.07653     -4419.2332      1249.6541     -486.16567      6.9165735    
     74300   296.43729     -4438.0797      1281.2825     -505.92746     -1.8158964    
     74400   301.23559     -4451.6794      1278.1716     -479.72948     -0.90958049   
     74500   293.49745     -4448.5235      1253.8862     -570.05695      3.7832394    
     74600   292.66634     -4473.1704      1294.4708     -561.55129     -9.5950201    
     74700   307.13665     -4475.3677      1223.9485     -504.87118      19.44603     
     74800   302.68759     -4455.4245      1243.1001     -505.56168      55.439998    
     74900   305.63927     -4479.2511      1268.9893     -477.10386     -14.248328    
     75000   296.91665     -4477.4555      1254.6313     -567.66772     -2.5567643    
     75100   296.01217     -4504.6886      1311.0319     -546.58862      11.228897    
     75200   302.34849     -4495.3595      1301.3001     -490.32915      6.7912889    
     75300   302.8506      -4500.0243      1312.3977     -479.40617      28.950066    
     75400   296.01162     -4478.7279      1266.3485     -565.31615      39.9523      
     75500   305.6694      -4486.7505      1215.4894     -537.83378      5.0372876    
     75600   299.13205     -4497.7519      1268.4516     -554.3329      -22.864718    
     75700   294.05991     -4497.5516      1311.604      -556.33738     -7.2895605    
     75800   298.68802     -4494.5165      1287.6329     -535.88692     -31.678308    
     75900   300.84915     -4485.7966      1297.3018     -498.17232      28.47763     
     76000   301.98628     -4486.711       1268.7341     -517.48569      22.560439    
     76100   305.11212     -4488.2856      1274.3098     -485.53198      25.702066    
     76200   295.00079     -4482.9268      1327.1794     -517.72347      17.007117    
     76300   294.07424     -4492.3356      1246.3996     -616.19774      1.2267467    
     76400   298.40308     -4484.5429      1317.2009     -498.89332      7.5596648    
     76500   301.38737     -4495.7162      1276.1855     -524.39522      1.5716175    
     76600   291.94734     -4494.0977      1241.1232     -642.25584     -11.961059    
     76700   295.69761     -4500.2951      1252.6523     -603.38762      31.126664    
     76800   299.23168     -4476.9202      1177.8092     -623.25263      9.907231     
     76900   302.76468     -4463.0591      1261.1487     -494.45844      5.1862795    
     77000   298.37843     -4503.5873      1271.5978     -563.76121      4.9037291    
     77100   300.69522     -4483.4926      1293.1414     -501.40518      4.3103769    
     77200   294.56741     -4491.1453      1262.686      -594.31086     -6.1152305    
     77300   295.68718     -4497.9458      1288.7635     -565.02025      23.136128    
     77400   297.13309     -4503.5627      1269.7028     -576.76797      15.833112    
     77500   299.46325     -4511.4682      1278.0044     -555.53451     -23.574508    
     77600   301.81261     -4542.5985      1284.856      -558.8044       34.501848    
     77700   306.85409     -4522.176       1202.3773     -575.7774       23.235896    
     77800   302.15216     -4508.4744      1266.4939     -540.00599      9.3796183    
     77900   293.20361     -4538.2635      1268.2227     -648.08798      4.1423241    
     78000   298.74476     -4532.3196      1242.2433     -618.57211     -31.041359    
     78100   304.46613     -4517.7144      1270.9395     -524.1078       8.136972     
     78200   299.43603     -4511.9838      1218.7346     -615.56347      24.777124    
     78300   302.55047     -4546.8615      1232.1981     -609.12703     -6.3766043    
     78400   304.77029     -4516.5164      1261.2678     -529.86152      2.2861569    
     78500   299.04231     -4541.7505      1274.3601     -593.22546     -30.073959    
     78600   295.41952     -4567.1429      1245.0561     -680.31834      10.519686    
     78700   303.44371     -4538.4089      1244.8837     -580.00098     -10.854801    
     78800   295.86066     -4553.1885      1256.2329     -651.24228      23.569672    
     78900   303.4697      -4547.5927      1230.5921     -603.24398     -7.9760071    
     79000   302.0726      -4553.3257      1266.4781     -585.58447     -8.0594593    
     79100   291.16736     -4554.8961      1262.6377     -688.51471      22.979317    
     79200   308.53468     -4567.3841      1258.358      -549.97624      21.293379    
     79300   305.65131     -4555.9201      1215.0585     -607.59608     -0.28026697   
     79400   305.78251     -4541.4         1264.4771     -542.48406      11.747185    
     79500   304.32707     -4541.532       1288.1072     -532.00122     -20.336064    
     79600   296.55122     -4578.7719      1229.894      -696.98929      3.8135817    
     79700   304.39097     -4561.7142      1267.7909     -571.92836      13.551624    
     79800   298.95157     -4546.1601      1261.8408     -610.96575     -9.0495156    
     79900   294.89301     -4533.448       1267.5437     -628.84417     -18.223623    
     80000   302.10864     -4553.7021      1287.4177     -564.69904     -2.8322539    
     80100   298.08443     -4552.1741      1259.1781     -627.39688     -12.326106    
     80200   299.93331     -4538.1011      1277.3322     -578.63617     -7.4601596    
     80300   296.11746     -4535.3505      1259.9399     -627.40088      32.499593    
     80400   299.92647     -4544.6861      1249.9034     -612.71111      3.4558747    
     80500   304.31786     -4545.3361      1264.104      -559.89082      24.076692    
     80600   294.27788     -4550.0599      1270.6665     -647.83396      2.6538249    
     80700   305.85968     -4578.0904      1279.2808     -563.68085      8.3786955    
     80800   302.37058     -4572.4603      1273.4017     -595.13077     -30.579969    
     80900   304.10806     -4555.933       1261.9266     -574.54129     -21.723488    
     81000   294.81413     -4569.9504      1259.7515     -673.84418     -7.5424971    
     81100   307.72358     -4563.9505      1254.2441     -557.90983      27.280412    
     81200   294.2306      -4568.507       1254.3317     -683.03873      21.156844    
     81300   312.32008     -4566.1973      1297.2631     -476.03368      3.6615082    
     81400   296.69693     -4580.438       1254.0922     -673.15426     -17.116011    
     81500   294.95335     -4583.6601      1238.4972     -707.56324      10.572593    
     81600   298.57416     -4588.8211      1241.8539     -676.98867     -2.6013274    
     81700   292.74028     -4587.3044      1224.7472     -744.7476       3.0906436    
     81800   298.67439     -4585.5737      1239.9694     -674.7294       12.801299    
     81900   296.94757     -4606.4722      1225.4351     -725.60417     -6.5437387    
     82000   292.54953     -4609.1165      1281.5638     -711.44903      21.589519    
     82100   303.21411     -4606.4735      1282.659      -612.34357      15.705019    
     82200   297.65932     -4592.9478      1259.381      -671.76913      30.82488     
     82300   305.22116     -4600.1323      1240.7727     -629.94068      18.879766    
     82400   309.60586     -4614.8177      1241.9914     -604.19754      4.774326     
     82500   299.50346     -4610.143       1282.2025     -649.6517      -19.983869    
     82600   302.07121     -4618.5443      1265.6566     -651.63702     -1.1847302    
     82700   292.95314     -4604.3466      1290.4875     -694.14623      2.996023     
     82800   309.32989     -4597.9783      1254.129      -577.68839      28.370536    
     82900   299.497       -4607.3799      1219.967      -709.18189      8.7256347    
     83000   304.02779     -4630.7945      1264.8163     -647.23092     -18.482274    
     83100   300.01772     -4617.965       1207.4447     -727.63281     -11.295957    
     83200   296.63195     -4625.0485      1270.7605     -701.67758     -5.6528635    
     83300   304.44882     -4622.5168      1243.8727     -656.13178      29.072235    
     83400   303.81737     -4626.7011      1236.4434     -673.39204      10.351352    
     83500   290.92453     -4634.8716      1242.0151     -791.28427     -28.331003    
     83600   308.43676     -4609.3174      1241.4435     -609.69972     -34.699793    
     83700   292.40871     -4591.755       1298.8331     -678.0774       2.054882     
     83800   301.18871     -4599.1766      1271.8526     -633.9651      -11.632941    
     83900   295.13276     -4624.3707      1278.3591     -706.80759     -5.3697447    
     84000   299.55803     -4602.5565      1242.9753     -680.80454      15.789991    
     84100   304.90838     -4616.8893      1247.1915     -643.0759       8.9503892    
     84200   300.34253     -4611.4182      1270.9186     -654.70749     -16.895867    
     84300   296.64513     -4607.5311      1271.8496     -682.95315      6.3555193    
     84400   293.56917     -4609.2441      1220.5338     -763.48853      14.494955    
     84500   295.30133     -4619.312       1248.8193     -729.78116      30.91461     
     84600   299.90476     -4607.6046      1301.5216     -624.20574     -9.2159288    
     84700   300.89523     -4604.5301      1274.584      -639.21151      14.484342    
     84800   297.39423     -4612.2865      1224.1157     -728.74361     -16.402406    
     84900   295.09658     -4617.7037      1272.8227     -706.00047      9.3997532    
     85000   300.83977     -4637.6597      1188.9673     -758.45371      30.599148    
     85100   304.21395     -4592.7846      1264.2827     -608.08988     -15.929064    
     85200   300.55953     -4614.4158      1211.3611     -715.32214     -6.6808814    
     85300   308.08157     -4591.3421      1259.3965     -576.94763     -7.4225114    
     85400   304.30116     -4602.8361      1312.608      -569.03624     -19.650103    
     85500   300.73163     -4607.6024      1265.3876     -652.94322     -0.019378704  
     85600   299.83298     -4605.9999      1260.7456     -664.01892     -8.4964026    
     85700   304.91261     -4620.6077      1270.1178     -623.83014     -14.88164     
     85800   304.0501      -4621.9779      1269.9536     -633.07748     -3.6999228    
     85900   295.52596     -4655.5956      1228.7267     -784.14862     -26.944049    
     86000   301.44026     -4635.8903      1260.7917     -679.49009      11.043905    
     86100   292.10914     -4638.0719      1224.099      -801.80737     -2.174556     
     86200   300.79988     -4644.4461      1246.9444     -707.61988      6.9829924    
     86300   307.5322      -4631.2703      1292.8996     -588.28541      36.784417    
     86400   294.75793     -4637.1984      1232.7722     -768.57403      7.0643162    
     86500   292.77986     -4631.3866      1240.0736     -773.14962     -28.9014      
     86600   303.26319     -4635.8544      1299.2064     -624.73817     -5.6834588    
     86700   293.40542     -4637.4568      1176.091      -837.6083       2.5160667    
     86800   291.58206     -4646.1958      1212.946      -825.79757     -2.7395462    
     86900   293.52486     -4643.2188      1260.6927     -757.70054     -13.975733    
     87000   291.7192      -4647.0007      1201.8012     -836.52102      32.741859    
     87100   299.31315     -4666.7397      1315.7155     -674.43718      19.592689    
     87200   304.7492      -4651.445       1223.7684     -702.47815     -5.1311311    
     87300   290.549       -4656.9532      1290.4793     -768.25974      26.528972    
[...]
     88700   300.08142     -4647.943       1250.169      -714.31687     -15.044776    
     88800   298.33905     -4666.3137      1281.2693     -717.16824      35.110068    
     88900   299.87871     -4659.2797      1254.1477     -723.48758     -0.84317504   
     89000   302.76263     -4653.9928      1266.2835     -680.27562     -2.0158934    
     89100   301.55614     -4678.4961      1233.5562     -748.29523     -0.1597631    
     89200   293.45235     -4647.3752      1236.7045     -786.49362     -9.0006179    
     89300   294.35617     -4666.1424      1239.3294     -794.55349      10.960473    
     89400   308.34203     -4670.3085      1250.0562     -662.92527      24.257918    
     89500   295.82113     -4671.7887      1240.8495     -785.57946     -9.7945232    
     89600   297.66283     -4630.8781      1280.9532     -688.09585     -5.3994527    
     89700   297.92281     -4661.8286      1303.5359     -694.13878      12.503029    
     89800   302.32801     -4669.4615      1257.2969     -708.61748      23.914777    
     89900   295.04855     -4664.9226      1287.9671     -738.50437      8.4269382    
     90000   299.73174     -4669.9847      1219.8954     -769.7591       12.058615    
     90100   304.41644     -4684.0961      1281.2698     -680.60351     -2.2837435    
     90200   294.19871     -4666.0832      1254.1671     -781.06464      16.516537    
     90300   307.29117     -4642.5554      1256.826      -637.79957     -15.263445    
     90400   297.58105     -4667.15        1228.9841     -777.06806     -18.062045    
     90500   299.85911     -4650.6539      1252.6004     -716.58433      17.123561    
     90600   299.00594     -4654.928       1237.662      -743.42632      21.903952    
     90700   296.12579     -4655.4207      1280.5606     -726.77589      0.35330133   
     90800   292.8774      -4648.7296      1219.7045     -809.98933     -35.200704    
     90900   299.40878     -4642.6107      1237.3824     -727.78617      23.945117    
     91000   291.24058     -4677.4714      1226.2666     -846.80629      34.050647    
     91100   298.75561     -4658.9753      1210.7578     -776.61642      24.30361     
     91200   299.48999     -4652.6014      1259.1243     -715.30874      9.0582676    
     91300   307.72366     -4641.2449      1264.0738     -625.37372      21.829476    
     91400   311.99763     -4687.817       1258.04       -639.75995      41.256794    
     91500   299.45356     -4679.0898      1230.9089     -770.33832     -23.366168    
     91600   307.69363     -4684.3808      1294.6042     -638.24782     -11.994663    
     91700   301.34598     -4674.3577      1250.3045     -729.28792      9.7181409    
     91800   299.48405     -4687.9655      1218.8653     -790.98508      1.9933306    
     91900   303.85185     -4660.9208      1261.9162     -681.83075      12.262783    
     92000   296.71331     -4656.9231      1250.8272     -752.75787      39.514141    
     92100   292.03199     -4679.9504      1264.6612     -803.81355     -2.3614697    
     92200   298.40097     -4684.8461      1247.7505     -768.66578     -13.87993     
     92300   297.99309     -4668.0317      1267.0651     -736.18419     -3.0881393    
     92400   301.85349     -4676.5164      1268.2455     -708.96721     -12.90287     
     92500   295.90943     -4657.2043      1249.8512     -761.20362      0.48846888   
     92600   304.05282     -4692.4683      1265.6298     -707.86737     -9.2614275    
     92700   291.9462      -4684.2726      1271.6439     -801.92022      20.820456    
     92800   299.37608     -4650.8135      1230.5269     -743.13685     -7.415012     
     92900   303.07151     -4694.5633      1269.6813     -714.68626     -11.667151    
     93000   303.4206      -4681.4238      1275.8525     -692.25379     -22.695472    
     93100   297.34787     -4668.5299      1267.2568     -742.26053     -35.174238    
     93200   292.01576     -4655.917       1263.5913     -780.99521      36.493434    
     93300   302.56864     -4678.1244      1245.8064     -726.61901     -8.5857137    
     93400   303.15755     -4685.3078      1245.0662     -729.27639     -22.767063    
     93500   302.59305     -4667.0009      1288.6436     -672.44013      33.651245    
     93600   293.26325     -4673.3185      1232.4124     -818.42001      13.933657    
     93700   298.97905     -4677.6602      1263.8374     -740.22358     -6.7058372    
     93800   300.03381     -4662.3191      1252.7659     -726.52183     -27.622497    
     93900   301.0031      -4690.5434      1217.5651     -781.27901      6.7139302    
     94000   300.68621     -4692.4364      1293.6326     -709.9383      -12.171597    
     94100   304.05937     -4689.4954      1240.8444     -729.62138      49.429734    
     94200   299.03764     -4698.0539      1277.1186     -746.81203      10.204254    
     94300   303.61752     -4660.7365      1230.1004     -715.55763      36.434301    
     94400   303.77265     -4683.3539      1301.6773     -665.21091      19.289463    
     94500   303.78914     -4678.1284      1227.2007     -734.3145       8.7598227    
     94600   300.85508     -4669.9371      1253.2457     -726.31586      34.841773    
     94700   307.97635     -4686.7621      1211.9389     -720.76624     -1.7907463    
     94800   304.15731     -4658.5439      1254.2015     -684.43679      13.020167    
     94900   300.71912     -4701.551       1229.9471     -782.44416     -7.0173504    
     95000   301.16732     -4678.6904      1250.7204     -734.80227     -13.974661    
     95100   296.9779      -4673.5478      1273.3146     -744.52917     -25.933833    
     95200   296.64497     -4693.9004      1214.783      -826.39038      2.644719     
     95300   299.83094     -4688.3196      1239.9132     -767.18915     -20.911578    
     95400   308.45825     -4687.5101      1305.3636     -623.78011     -4.6614069    
     95500   295.3768      -4684.9598      1222.5138     -821.05956      16.606659    
     95600   299.29713     -4692.7871      1244.5764     -771.76705      33.24879     
     95700   305.63612     -4684.8709      1282.0007     -669.74052     -6.2681629    
     95800   297.85982     -4696.057       1261.5181     -770.94829      23.399925    
     95900   303.49234     -4690.7138      1275.4612     -701.29355      8.3517702    
     96000   299.37213     -4678.0613      1250.9641     -749.98279     -44.225336    
     96100   302.15764     -4687.1496      1270.4267     -714.69929      7.6931449    
     96200   301.31458     -4695.8814      1292.4451     -708.95169     -2.1986022    
     96300   297.55668     -4678.4713      1217.9306     -799.66084      3.259826     
     96400   301.59726     -4677.3173      1314.999      -665.30585      5.7586272    
     96500   297.41379     -4667.441       1232.0125     -775.82641     -6.8312171    
     96600   299.8445      -4687.4474      1248.8305     -757.27839     -35.91968     
     96700   299.37443     -4672.5036      1231.3447     -764.02396     -1.8202725    
     96800   304.69388     -4683.5936      1287.4237     -671.46614     -6.1279483    
     96900   297.52081     -4680.8328      1264.4931     -755.78067     -11.742883    
     97000   302.0982      -4680.2514      1264.6517     -714.10764     -6.5488521    
     97100   296.78317     -4670.418       1223.5115     -792.94381      7.4883304    
     97200   304.78384     -4688.811       1265.156      -698.14676      10.080717    
     97300   305.28967     -4690.9791      1224.4145     -736.53307      29.549175    
     97400   297.95822     -4682.5182      1276.6201     -741.42753     -3.1266872    
     97500   307.65501     -4705.9672      1236.625      -718.15873      28.967267    
     97600   302.31694     -4706.591       1273.1763     -729.96657      20.743274    
     97700   302.70616     -4703.8608      1238.2068     -758.72539     -9.1503098    
     97800   307.65673     -4686.6003      1231.5687     -703.83282     -6.0938803    
     97900   305.2062      -4734.6349      1314.3792     -690.97065      19.661571    
     98000   296.33537     -4743.6461      1241.1208     -852.56696      35.581899    
     98100   304.96589     -4730.9791      1252.1154     -751.72758     -7.1900617    
     98200   299.68333     -4731.8945      1245.6012     -806.39604     -9.7662504    
     98300   303.33269     -4725.6931      1243.2408     -769.92095      5.8934957    
     98400   304.13457     -4744.8624      1240.8188     -784.34149     -11.345897    
     98500   292.50814     -4730.0824      1273.252      -841.09676     -34.200975    
     98600   300.01959     -4744.1418      1260.3946     -800.84301     -2.3936706    
     98700   305.68006     -4741.8147      1273.0362     -735.25594     -26.584201    
     98800   300.13302     -4725.9231      1226.4084     -815.59615      9.8553995    
     98900   298.14219     -4745.4706      1302.7628     -776.5921       18.501654    
     99000   305.19707     -4727.8144      1220.2351     -778.37582      5.9016757    
     99100   302.30323     -4742.7812      1267.9626     -771.49313      0.45250863   
     99200   303.1406      -4746.8899      1280.34       -755.73617      5.0928999    
     99300   298.49363     -4733.473       1271.0794     -793.13519      14.752449    
     99400   294.63081     -4757.5566      1252.1742     -870.66704      18.788483    
     99500   302.4037      -4756.4293      1234.0789     -818.12632      32.553435    
     99600   299.38613     -4733.7533      1321.3115     -735.2022       4.976421     
     99700   299.8019      -4778.0908      1252.144      -844.98922      0.52533786   
     99800   299.90921     -4755.0523      1208.1527     -864.98246     -12.065939    
     99900   290.98566     -4766.7755      1272.4344     -892.22223     -15.187631    
    100000   310.39424     -4777.8739      1230.397      -771.79807      27.083875    
    100100   303.24648     -4790.8058      1245.252      -833.79345      57.328508    
    100200   305.70518     -4793.1182      1210.2699     -849.10104      31.384852    
    100300   302.01934     -4798.0228      1236.8738     -860.36216      2.4321718    
    100400   293.84826     -4811.8706      1299.1885     -884.96455     -22.548497    
    100500   301.517       -4788.7866      1230.3113     -862.18054     -18.469293    
    100600   300.39276     -4800.3425      1234.0981     -880.00313     -15.348712    
    100700   301.88947     -4811.5566      1232.3992     -879.53189      6.6116495    
    100800   300.51906     -4794.3483      1202.3728     -904.60481      17.760858    
    100900   304.2601      -4800.246       1255.75       -823.67129     -21.365288    
    101000   298.27567     -4830.2875      1257.6856     -905.29256     -32.705527    
    101100   289.22374     -4785.8326      1260.067      -939.40249     -29.674917    
    101200   295.96089     -4816.6621      1285.5583     -884.49426     -23.846023    
    101300   297.45963     -4837.8141      1233.043      -944.75912     -9.8225951    
    101400   296.92912     -4809.3261      1191.454      -962.60421      2.0451032    
    101500   298.03999     -4845.9142      1273.2638     -907.44854      1.4104201    
    101600   298.69709     -4825.6891      1262.8537     -891.75757      16.443577    
    101700   294.66165     -4833.481       1290.3402     -908.14956      20.348079    
    101800   301.4926      -4838.5563      1281.3026     -861.17724      3.3684218    
    101900   300.13827     -4839.6092      1199.3735     -956.27009     -20.957067    
    102000   300.82195     -4849.0867      1231.4306     -927.57683     -11.385517    
    102100   304.12867     -4841.4927      1234.2616     -887.5818      -28.876811    
    102200   298.02947     -4829.0749      1252.0752     -911.89192      4.8878238    
    102300   303.05711     -4841.1671      1261.8281     -869.27198     -3.1097919    
    102400   294.51568     -4817.0849      1268.5775     -914.82145      7.9528939    
    102500   307.81328     -4801.739       1274.3325     -774.80786      5.4063103    
    102600   298.74823     -4823.1976      1195.1418     -956.5206       11.777966    
    102700   305.18208     -4811.8398      1280.64       -802.13028      9.0816176    
    102800   307.24591     -4828.7148      1221.9662     -859.22352      36.310786    
    102900   300.23319     -4829.4994      1284.0604     -860.6246       34.759409    
    103000   301.25764     -4830.0794      1254.4982     -881.60579     -15.505737    
    103100   297.63501     -4828.0845      1226.1632     -940.34096     -15.822515    
    103200   293.39933     -4833.4436      1287.671      -922.06961      2.3047739    
    103300   299.5409      -4822.8408      1233.1255     -911.09172      16.199374    
    103400   297.23795     -4824.9194      1251.8288     -915.06101     -6.3774161    
    103500   299.66165     -4819.2853      1242.3193     -897.26268      19.842699    
    103600   303.44894     -4842.2728      1270.6698     -858.03203     -3.3825124    
    103700   300.76763     -4833.1992      1239.2155     -904.39019     -0.052485374  
    103800   301.23546     -4827.3234      1271.3366     -862.20975     -0.21004428   
    103900   299.50593     -4827.2042      1267.3496     -881.54368     -20.518649    
    104000   295.72624     -4806.2661      1251.72       -910.03492      25.615336    
    104100   299.91619     -4812.6981      1287.085      -843.63348      27.845176    
    104200   304.48744     -4844.5947      1255.9444     -865.79269      26.516425    
    104300   304.21775     -4822.9734      1280.1224     -822.40503      17.402772    
    104400   303.66249     -4817.4139      1246.6621     -855.27115      5.8399046    
    104500   295.58443     -4793.7483      1239.0012     -911.50395      35.269343    
    104600   302.07848     -4803.9782      1265.0467     -837.61589      2.8828846    
    104700   297.41227     -4814.4759      1214.6397     -940.24775     -2.1125852    
    104800   309.09644     -4832.8474      1249.8459     -818.92816      9.0275237    
    104900   296.96545     -4825.7558      1252.1847     -917.97827      19.139054    
    105000   295.85112     -4836.8487      1243.7934     -947.42738     -8.6342145    
    105100   296.28542     -4810.655       1263.3511     -897.79225      19.983989    
    105200   300.94373     -4839.3785      1219.744      -928.46625      16.817751    
    105300   303.87533     -4820.572       1231.7068     -871.48135     -20.774817    
    105400   302.08117     -4823.3674      1185.2005     -936.82715     -6.4378525    
    105500   303.6615      -4824.3304      1260.857      -848.00162     -2.7546036    
    105600   298.0244      -4821.8132      1241.5244     -915.22647      12.331419    
    105700   288.43379     -4840.4214      1296.3987     -964.72368      33.180149    
    105800   296.72028     -4834.5628      1256.8166     -924.34576      35.059173    
    105900   303.36725     -4845.2582      1235.5947     -896.82301     -7.4078075    
    106000   296.47965     -4832.5712      1302.201      -879.12158      26.751282    
    106100   295.14526     -4843.4508      1223.3741     -980.76083      60.954004    
    106200   298.37526     -4832.419       1245.8378     -918.38118      2.5507463    
    106300   296.51402     -4830.0646      1216.6844     -961.82433      19.703311    
    106400   298.90325     -4818.5751      1245.9445     -899.70916      7.8026568    
    106500   294.44346     -4834.5583      1229.1478     -972.37039      5.3291136    
    106600   301.98562     -4811.3632      1248.7167     -862.16118      22.61432     
    106700   308.39761     -4835.4063      1227.7884     -849.79383      22.776222    
    106800   298.83869     -4813.052       1270.3087     -870.39916     -3.4564688    
    106900   305.33322     -4844.1183      1255.5048     -858.19242     -24.571171    
    107000   294.27378     -4836.4497      1235.8099     -969.11712      4.8694673    
    107100   290.51742     -4828.3217      1190.9165     -1039.4734     -0.72160076   
    107200   299.48447     -4809.7562      1231.2449     -900.39235      18.655333    
    107300   298.46439     -4844.2295      1176.0253     -999.20725     -6.6735295    
    107400   289.56822     -4866.1929      1217.4604     -1059.289       19.034333    
    107500   305.08688     -4847.6573      1232.9261     -886.51308     -12.603568    
    107600   300.41981     -4861.0926      1215.7706     -958.8389       12.509048    
    107700   292.92946     -4859.1942      1258.9132     -980.77975      22.365012    
    107800   295.83963     -4858.797       1295.255      -918.01685     -13.448718    
    107900   294.18805     -4839.3553      1283.875      -924.72419     -9.3300001    
    108000   294.55772     -4866.0818      1270.5459     -961.47408     -12.272348    
    108100   300.43819     -4830.2348      1254.357      -889.2303       39.430468    
    108200   296.81769     -4854.9162      1243.2307     -957.41402      11.438606    
    108300   297.6667      -4830.8052      1235.6213     -933.32032      4.4823681    
    108400   296.82124     -4841.0145      1208.4563     -978.25499      6.5996839    
    108500   308.48524     -4854.8196      1263.509      -832.70298     -23.61249     
    108600   300.35504     -4867.2028      1289.3839     -891.9149      -7.8947084    
    108700   300.17745     -4852.5482      1242.5362     -925.69613      20.931424    
    108800   298.56418     -4869.2994      1218.0455     -981.36463     -12.722053    
    108900   306.61531     -4854.6757      1231.6645     -881.12524      8.6490384    
    109000   293.60988     -4868.5098      1272.8902     -970.03377     -6.2019817    
    109100   298.11844     -4855.7273      1237.7913     -952.03277     -32.707813    
    109200   301.68004     -4858.1595      1273.8904     -886.5163       15.265267    
    109300   289.49213     -4864.2043      1288.2754     -987.16569      18.690429    
    109400   301.54019     -4845.3147      1276.5814     -872.2312       19.667534    
    109500   299.72811     -4850.9605      1259.6284     -911.03443      8.9823502    
    109600   292.01919     -4841.0373      1296.5676     -933.1084      -0.90116109   
    109700   295.96881     -4872.758       1321.5657     -904.51185      20.669748    
    109800   299.08492     -4852.5504      1273.9582     -904.04615     -10.165088    
    109900   293.5898      -4870.5421      1288.2301     -956.90575      8.7315648    
    110000   304.3132      -4889.2513      1245.1409     -922.81085      36.096641    
Loop time of 46.9209 on 64 procs for 100000 steps with 3001 atoms

Performance: 5524.195 ns/day, 0.004 hours/ns, 2131.248 timesteps/s
99.6% CPU use with 64 MPI tasks x 1 OpenMP threads

MPI task timing breakdown:
Section |  min time  |  avg time  |  max time  |%varavg| %total
---------------------------------------------------------------
Pair    | 0.25519    | 0.70599    | 3.537      | 113.7 |  1.50
Bond    | 0.13527    | 0.22013    | 0.53905    |  24.1 |  0.47
Neigh   | 8.7706     | 8.9845     | 9.2374     |   3.8 | 19.15
Comm    | 30.424     | 33.984     | 34.743     |  21.4 | 72.43
Output  | 2.2555     | 2.2682     | 2.2784     |   0.4 |  4.83
Modify  | 0.2291     | 0.35256    | 0.83466    |  28.6 |  0.75
Other   |            | 0.4051     |            |       |  0.86

Nlocal:        46.8906 ave         159 max          13 min
Histogram: 16 30 8 1 1 0 0 1 5 2
Nghost:        3455.53 ave        3729 max        3138 min
Histogram: 5 3 0 4 16 10 11 7 2 6
Neighs:        484.984 ave        3125 max          21 min
Histogram: 54 1 1 0 0 0 1 1 3 3
FullNghs:      969.969 ave        6492 max          56 min
Histogram: 54 1 1 0 0 0 1 3 1 3

Total # of neighbors = 62078
Ave neighs/atom = 20.685771
Ave special neighs/atom = 3.5988004
Neighbor list builds = 10000
Dangerous builds = 9990
Total wall time: 0:00:50
