LAMMPS (23 Jun 2022)
OMP_NUM_THREADS environment is not set. Defaulting to 1 thread. (src/src/comm.cpp:98)
  using 1 OpenMP thread(s) per MPI task
Created orthogonal box = (0 0 0) to (150 150 150)
  2 by 3 by 3 MPI processor grid
Read molecule template lig:
  1 molecules
  0 fragments
  5 atoms with max type 2
  4 bonds with max type 1
  3 angles with max type 1
  0 dihedrals with max type 0
  0 impropers with max type 0
Created 1 atoms
  using box units in orthogonal box = (0 0 0) to (150 150 150)
  create_atoms CPU = 0.000 seconds
Created 1000 atoms
  using lattice units in orthogonal box = (0 0 0) to (150 150 150)
  create_atoms CPU = 0.004 seconds
Finding 1-2 1-3 1-4 neighbors ...
  special bond factors lj:    0        1        1       
  special bond factors coul:  0        0        0       
     2 = max # of 1-2 neighbors
     2 = max # of 1-3 neighbors
     2 = max # of 1-4 neighbors
     7 = max # of special neighbors
  special bonds CPU = 0.001 seconds
1000 atoms in group ligands
Generated 0 of 6 mixed pair_coeff terms from geometric mixing rule
Neighbor list info ...
  update every 1 steps, delay 10 steps, check yes
  max neighbors/atom: 2000, page size: 100000
  master list distance cutoff = 60
  ghost atom cutoff = 60
  binsize = 30, bins = 5 5 5
  1 neighbor lists, perpetual/occasional/extra = 1 0 0
  (1) pair lj/expand, perpetual
      attributes: half, newton on
      pair build: half/bin/newton
      stencil: half/bin/3d
      bin: standard
Setting up Verlet run ...
  Unit style    : real
  Current step  : 0
  Time step     : 30
Per MPI rank memory allocation (min/avg/max) = 8.117 | 8.126 | 8.133 Mbytes
   Step          Temp          E_pair         E_mol          TotEng         Press     
         0   0              1.5200419e+10  1.1384104e-25  1.5200419e+10  1.2352851e+09
      5000   142.00056     -158.4126       227.02358      491.88766      3.5886156    
     10000   142.20152     -179.13868      207.29396      452.031       -2.1906085    
Loop time of 1.27685 on 18 procs for 10000 steps with 1001 atoms

Performance: 20299.952 ns/day, 0.001 hours/ns, 7831.772 timesteps/s
99.4% CPU use with 18 MPI tasks x 1 OpenMP threads

MPI task timing breakdown:
Section |  min time  |  avg time  |  max time  |%varavg| %total
---------------------------------------------------------------
Pair    | 0.019254   | 0.052518   | 0.090348   |   7.4 |  4.11
Bond    | 0.017799   | 0.038118   | 0.056737   |   4.5 |  2.99
Neigh   | 0.26599    | 0.26892    | 0.27215    |   0.3 | 21.06
Comm    | 0.76391    | 0.84042    | 0.9108     |   3.6 | 65.82
Output  | 6.794e-05  | 7.1977e-05 | 9.0396e-05 |   0.0 |  0.01
Modify  | 0.022863   | 0.048595   | 0.068703   |   4.6 |  3.81
Other   |            | 0.02821    |            |       |  2.21

Nlocal:        55.6111 ave          82 max          19 min
Histogram: 1 1 0 0 3 5 3 3 1 1
Nghost:        1602.33 ave        1743 max        1455 min
Histogram: 1 2 2 0 1 3 6 1 1 1
Neighs:            172 ave         364 max          56 min
Histogram: 2 2 4 3 1 4 0 1 0 1

Total # of neighbors = 3096
Ave neighs/atom = 3.0929071
Ave special neighs/atom = 3.5964036
Neighbor list builds = 909
Dangerous builds = 0
1 atoms in group nps
200 atoms in group amines
Generated 0 of 6 mixed pair_coeff terms from geometric mixing rule
Neighbor list info ...
  update every 1 steps, delay 10 steps, check yes
  max neighbors/atom: 2000, page size: 100000
  master list distance cutoff = 60
  ghost atom cutoff = 60
  binsize = 30, bins = 5 5 5
  2 neighbor lists, perpetual/occasional/extra = 1 1 0
  (1) pair lj/expand, perpetual
      attributes: half, newton on
      pair build: half/bin/newton
      stencil: half/bin/3d
      bin: standard
  (2) compute coord/atom, occasional
      attributes: full, newton on
      pair build: full/bin
      stencil: full/bin/3d
      bin: standard
Setting up Verlet run ...
  Unit style    : real
  Current step  : 10000
  Time step     : 30
Per MPI rank memory allocation (min/avg/max) = 7.493 | 7.546 | 7.768 Mbytes
   Step          Temp          E_pair         E_mol          TotEng         Press     
     10000   142.20152     -179.13868      207.29396      452.031       -2.1906085    
     15000   312.16279     -221.75948      434.24111      1142.9796      4.1297422    
     20000   299.14358     -290.96424      422.7014       1023.4273      3.9371939    
     25000   297.07525     -309.9576       424.08158      999.64888     -6.2769783    
     30000   287.36976     -359.33994      454.65772      951.91245     -20.962394    
     35000   304.13696     -414.49045      417.89916      909.98323      9.4401619    
     40000   305.07255     -441.83112      428.65177      896.18399     -2.6155384    
     45000   297.40827     -485.40454      439.55529      840.6683       0.61224355   
     50000   292.05624     -512.32461      426.56703      784.80659      7.1823432    
     55000   296.6787      -532.04937      429.73132      782.02479      7.9129456    
     60000   299.72485     -557.38567      414.74754      750.78471      1.7364871    
     65000   293.68173     -588.81674      433.9851       720.5778      -3.316655     
     70000   317.78545     -622.90296      426.37249      750.72758      6.7341463    
     75000   296.61471     -655.30457      413.67428      642.52182      3.2028416    
     80000   313.85339     -667.47227      433.69333      701.7584       4.3864974    
     85000   303.41882     -683.70523      401.24028      621.96893     -3.0910055    
     90000   296.44315     -699.08134      418.41879      602.97818     -10.659415    
     95000   297.29038     -763.53361      423.23672      545.86926      0.53363694   
    100000   296.19516     -781.81862      413.94875      515.03162      2.8548315    
    105000   304.99955     -792.87107      420.70862      536.98327      0.62656739   
    110000   309.93105     -806.80488      386.65844      503.69916     -11.23512     
    115000   297.34119     -826.47016      427.73926      487.58672      5.4440508    
    120000   303.56465     -824.0466       444.17209      524.99404     -0.8728272    
    125000   299.21925     -855.17705      420.29789      457.0366       13.493271    
    130000   302.28023     -866.81476      413.23086      447.45605      2.8107156    
    135000   292.13284     -909.94123      437.56484      398.41611      11.695667    
    140000   293.5018      -902.9457       414.92753      386.85495      11.14441     
    145000   311.81506     -969.24626      430.35641      390.5716       4.687146     
    150000   297.05887     -978.45013      413.07493      320.10086     -7.4078781    
    155000   305.74495     -1026.3467      419.19157      304.2125      -2.2854394    
    160000   303.38284     -1044.0667      397.65615      257.91607      4.3509263    
    165000   294.83107     -1077.0274      425.94701      227.75499      9.620394     
    170000   289.76711     -1103.009       411.09738      171.8291      -9.6394491    
    175000   299.17647     -1116.1133      437.00776      212.68265     -6.2562208    
    180000   294.99129     -1125.2487      437.2675       191.33186      8.248185     
    185000   305.621       -1127.3758      417.47795      201.10031     -8.5323506    
    190000   309.29136     -1135.467       420.26449      206.73623     -10.184613    
    195000   300.7795      -1155.3781      423.48522      164.67369     -2.3099982    
    200000   303.94121     -1177.2605      412.4223       141.15286     -7.7986829    
    205000   297.62062     -1186.1027      392.46997      93.517807      11.421537    
    210000   292.98378     -1194.7651      412.72068      91.284531      8.6785202    
    215000   299.03589     -1197.7367      388.44946      82.081892     -10.031857    
    220000   299.72558     -1201.5904      423.51282      115.34741      1.5111943    
    225000   295.33806     -1198.1458      384.58231      66.783177     -6.7731338    
    230000   281.56179     -1206.8165      427.9348       60.400559      12.164576    
    235000   295.61387     -1206.6692      412.68882      87.188373     -19.490431    
    240000   296.80755     -1225.6079      395.20404      54.323074     -6.3106302    
    245000   306.51571     -1232.9958      413.45938      94.128713      17.18928     
    250000   296.55823     -1241.3617      404.65828      47.280374      3.5651761    
    255000   295.8024      -1224.0565      419.15572      76.829965     -8.8836588    
    260000   295.06868     -1240.2572      420.96687      60.253399      11.640759    
    265000   299.66148     -1239.1665      397.38344      51.45087       16.654831    
    270000   292.17544     -1227.2311      416.75338      60.441795      19.484935    
    275000   303.3832      -1242.0629      390.33562      52.600397      2.8547228    
    280000   302.39202     -1262.8165      417.11504      55.671741      11.325527    
    285000   290.75038     -1259.8661      406.58914      13.394666     -0.64201027   
    290000   304.25894     -1271.4132      427.37438      62.89927      -7.1780082    
    295000   287.07403     -1296.074       406.85375     -33.507099      8.5692982    
    300000   307.4373      -1282.0012      428.27465      62.685691      15.904523    
    305000   297.83262     -1330.742       435.18512     -7.7744522      9.8480499    
    310000   295.81935     -1360.8959      406.54134     -72.573317     -8.7815799    
    315000   294.75849     -1334.1894      429.08232     -26.488028      0.14346919   
    320000   295.16466     -1336.9799      400.23686     -56.913287      2.6276047    
    325000   292.39103     -1334.5217      442.97433     -19.985259      2.5178291    
    330000   294.17304     -1342.3935      416.13851     -49.38107       4.8823129    
    335000   305.9693      -1360.4259      417.5934      -30.796127      1.1429647    
    340000   302.77763     -1345.8911      393.87891     -49.489605      5.7919011    
    345000   305.09065     -1362.7569      424.70983     -28.629746     -1.0653751    
    350000   300.21132     -1365.7442      387.79779     -83.073453      6.5046333    
    355000   297.02462     -1399.1088      402.0781      -111.65667     -4.763915     
    360000   302.87909     -1400.1713      436.63119     -60.715081      7.1582736    
    365000   298.76657     -1395.6784      416.87759     -88.234433      8.3563254    
    370000   302.51903     -1376.4922      420.73042     -54.01006       8.6464679    
    375000   290.16033     -1394.2804      426.68473     -102.68287     -8.6669082    
    380000   296.72067     -1410.1692      414.347       -111.35426     -3.5358448    
    385000   301.41266     -1400.609       393.66254     -108.49254     -17.489197    
    390000   303.0239      -1423.505       410.26208     -109.98619     -5.8488736    
    395000   290.92574     -1448.9523      412.77515     -168.98279     -1.9044782    
    400000   304.87338     -1421.424       436.02        -76.634407      26.26681     
    405000   304.92326     -1410.7837      423.79213     -78.073256      15.487353    
    410000   300.5569      -1412.7465      412.5271      -104.3164       8.318618     
    415000   289.61484     -1437.8233      404.96168     -169.57477      1.8016004    
    420000   292.69988     -1433.2945      431.27787     -129.53392      8.4621483    
    425000   301.45534     -1437.7389      403.94316     -135.21467      0.60189433   
    430000   299.30845     -1456.455       400.0838      -164.18953      11.463174    
    435000   300.32577     -1457.0838      409.07678     -152.79293     -8.2878995    
    440000   294.96365     -1437.3685      402.75023     -155.3877       1.4713579    
    445000   307.37245     -1453.6712      422.82879     -114.62356      8.7476192    
    450000   295.18057     -1475.5902      416.97332     -178.73962      2.2282733    
    455000   300.704       -1464.2106      412.03192     -155.83717     -10.897034    
    460000   296.86055     -1473.4637      418.52979     -170.04905      6.0287049    
    465000   303.3801      -1478.0654      400.92905     -172.81795     -9.7895171    
    470000   285.18423     -1498.1085      411.94849     -236.07996     -11.559155    
    475000   294.33805     -1477.5115      421.81752     -178.32816     -3.2390347    
    480000   292.37459     -1501.2104      408.52498     -221.17235     -0.25798307   
    485000   301.70355     -1513.3531      407.82492     -206.2072      -11.209577    
    490000   292.49945     -1511.7253      427.95258     -211.88741     -12.71041     
    495000   295.59562     -1499.2799      425.67463     -192.49087     -2.8583532    
    500000   306.06644     -1503.1879      437.45859     -153.40342     -3.603976     
    505000   301.2255      -1511.1973      414.96355     -198.33778     -4.5974121    
    510000   301.00002     -1500.3238      405.31044     -197.78945      7.9753119    
    515000   289.36658     -1531.2099      434.74359     -233.91952     -7.6584637    
    520000   290.32824     -1498.9398      420.71048     -212.81601      9.3294295    
    525000   297.66084     -1516.1262      411.67621     -217.17957     -4.9014559    
    530000   293.9398      -1524.5979      418.1065      -230.3127       19.01093     
    535000   300.83163     -1534.9757      412.62695     -225.6268      -1.4365798    
    540000   299.38712     -1535.0223      410.69305     -231.91312      7.122926     
    545000   307.37034     -1546.2281      437.36637     -192.64911      3.0275589    
    550000   292.93781     -1531.2124      406.43598     -251.58444      14.444993    
    555000   301.85747     -1539.2745      420.57853     -218.91619     -21.041531    
    560000   304.52023     -1512.8022      408.19455     -196.89071      1.2591935    
    565000   301.60487     -1519.6519      417.17277     -203.45232     -7.4658547    
    570000   292.73749     -1544.4922      388.55576     -283.34159     -6.7301087    
    575000   296.39845     -1559.8828      380.87509     -295.50018      0.52532895   
    580000   301.41963     -1543.3354      429.81836     -215.0424       8.4828359    
    585000   294.19968     -1561.5688      416.36397     -268.25145      4.0003193    
    590000   282.9803      -1556.612       423.09037     -290.0111      -8.9350386    
    595000   302.71862     -1537.6082      404.61772     -230.64374     -4.3200539    
    600000   301.19229     -1561.3134      417.46858     -246.04786      15.745781    
    605000   298.8245      -1571.3681      427.40271     -253.22631      17.045062    
    610000   297.70123     -1563.2741      422.08368     -253.79964      17.172226    
    615000   305.1857      -1547.9133      398.09243     -240.1203      -15.438482    
    620000   294.01294     -1577.8615      398.25477     -303.21        -14.591555    
    625000   296.79899     -1570.2465      391.29518     -294.24986      14.456421    
    630000   293.49994     -1577.8828      416.06727     -286.94795     -3.0904673    
    635000   295.71824     -1584.4783      425.02761     -277.97078      2.42818      
    640000   303.37219     -1574.3481      409.81864     -260.2346       6.2669451    
    645000   311.98373     -1578.8176      415.74267     -233.11068      0.081287226  
    650000   298.69647     -1575.1708      388.20849     -296.6049       25.985339    
    655000   299.35015     -1587.0113      411.50948     -283.19589      10.415202    
    660000   280.63548     -1608.1011      389.69442     -381.88561     -3.9681952    
    665000   289.555       -1599.3922      403.5814      -332.70234     -15.770094    
    670000   294.00441     -1591.2289      406.67675     -308.18083      8.3721048    
    675000   300.74815     -1575.7022      386.68875     -292.54032      7.20901      
    680000   297.74198     -1568.5734      410.625       -270.43606      7.9543094    
    685000   308.67233     -1588.7423      437.2172      -231.43153      10.212159    
    690000   292.25258     -1578.094       422.94374     -284.00078      1.0238994    
    695000   298.53298     -1581.5054      432.51235     -259.12295     -29.426136    
    700000   302.11627     -1592.4357      405.41048     -286.47402      11.044703    
    705000   296.25585     -1601.9659      399.35853     -319.52494      2.4733788    
    710000   305.44057     -1583.1825      437.24037     -235.48186     -6.8702618    
    715000   288.12749     -1611.3669      420.09075     -332.42278      7.0148873    
    720000   299.29575     -1588.5182      418.34239     -278.03205     -14.282473    
    725000   306.56414     -1595.8251      388.26247     -293.75316      2.6134415    
    730000   299.15585     -1601.4914      407.947       -301.81763     -9.7429879    
    735000   301.27041     -1595.3069      399.64189     -297.63518      6.3577686    
    740000   298.42216     -1578.2025      422.09962     -266.56307      7.2482885    
    745000   285.42427     -1594.321       396.38891     -347.13657      23.481233    
    750000   292.14929     -1596.0564      423.59232     -301.62256      2.4176239    
    755000   301.72502     -1590.9145      415.04219     -276.48731     -11.878313    
    760000   294.50527     -1585.7034      406.55804     -301.28105      8.4666816    
    765000   286.18831     -1601.0344      412.91314     -335.04824     -3.9842442    
    770000   306.99165     -1613.0591      418.56772     -279.40756      2.2094995    
    775000   305.10889     -1609.7411      402.52339     -297.74604     -0.61467756   
    780000   299.75124     -1594.92        395.66901     -305.74947      12.973241    
    785000   302.82584     -1610.8084      394.52201     -313.62012     -12.033316    
    790000   308.47751     -1605.9941      412.92545     -273.55585     -8.1002205    
    795000   306.14843     -1611.9594      387.30327     -312.08585      2.5105968    
    800000   295.57814     -1648.3038      393.80914     -373.43232      3.0525259    
    805000   310.3704      -1633.7838      422.07488     -286.55372      16.310185    
    810000   306.37378     -1657.2823      404.69825     -339.34202     -3.7758826    
    815000   301.73962     -1637.8139      440.18081     -298.20465      9.8425364    
    820000   295.19669     -1654.8779      423.35039     -351.60223      2.2947728    
    825000   301.39664     -1659.4283      405.76393     -355.25818      10.724407    
    830000   298.20054     -1634.778       407.72597     -338.17285     -0.16576625   
    835000   307.79139     -1647.3252      422.41838     -307.4392       7.6871439    
    840000   310.96271     -1655.4691      399.06789     -329.48039      1.8832902    
    845000   291.23919     -1637.9462      403.43315     -366.38439     -13.45767     
    850000   291.98921     -1646.094       407.72168     -368.00795     -4.2962698    
    855000   293.54996     -1642.9727      364.31399     -403.64206      9.8554101    
    860000   299.5767      -1630.4258      421.0697      -316.37483     -5.0551311    
    865000   304.79317     -1627.1903      404.22734     -314.4324      -7.8387225    
    870000   305.57793     -1612.9967      385.47139     -316.65559      3.3363692    
    875000   292.53633     -1600.2561      398.03221     -330.22863     -4.8886071    
    880000   296.50876     -1623.0413      431.63338     -307.57167     -23.214905    
    885000   313.7086      -1619.7385      426.54046     -258.09229     -13.85244     
    890000   298.7564      -1618.1601      405.42074     -322.20329     -11.28168     
    895000   293.24936     -1603.4167      439.83256     -289.46352     -2.5907869    
    900000   295.18905     -1598.8266      410.98373     -307.94038      1.4885221    
    905000   295.69461     -1611.0669      424.3925      -305.26494      9.8495454    
    910000   292.82725     -1593.4987      418.2718      -302.36447     -10.209782    
    915000   295.16405     -1608.3367      413.89696     -314.61182      0.74624378   
    920000   290.78372     -1602.2224      411.13138     -324.32001     -4.0277548    
    925000   300.78718     -1598.3425      408.03862     -293.71447     -11.752046    
    930000   296.44531     -1584.3722      388.36438     -312.36065     -11.541025    
    935000   307.115       -1598.2523      423.44208     -259.35873     -8.9703947    
    940000   297.46728     -1608.8697      404.52488     -317.65141     -14.079203    
    945000   300.18538     -1590.665       408.14083     -287.72862     -3.4778151    
    950000   304.58929     -1599.5152      393.25135     -298.34101     -3.4218318    
    955000   286.1676      -1616.8862      429.5462      -334.32873     -6.6263741    
    960000   296.49926     -1611.0655      422.86755     -304.38996     -0.56052243   
    965000   303.61742     -1610.5969      408.81781     -296.75324     -15.158014    
    970000   292.52092     -1610.3501      412.58592     -325.81489     -1.8879355    
    975000   299.33151     -1614.0891      418.66644     -303.17232      11.838433    
    980000   306.26278     -1606.0203      414.17587     -278.9332      -12.711495    
    985000   302.91809     -1619.4854      402.26978     -314.27438      3.9531696    
    990000   295.62742     -1614.4334      396.45241     -336.77182      4.4812688    
    995000   307.75181     -1585.703       412.3806      -255.97277      2.6567673    
   1000000   293.07403     -1610.4661      425.41428     -311.45383     -4.0253885    
   1005000   301.59131     -1622.786       424.76804     -299.0315      -9.2410527    
   1010000   303.72481     -1580.3891      408.68573     -266.35746     -6.7836165    
   1015000   283.94092     -1603.8208      401.57514     -355.8717       14.184399    
   1020000   297.02348     -1595.5955      403.60425     -306.62066      14.945416    
   1025000   284.47251     -1622.0141      424.46451     -349.59108     -3.6266049    
   1030000   298.87767     -1625.4574      398.48002     -336.07984      6.5729363    
   1035000   302.55734     -1622.0067      387.8449      -332.29589      12.387244    
   1040000   305.85228     -1582.62        381.01318     -289.91925     -15.605192    
   1045000   298.9099      -1624.125       407.5179      -325.6135      -3.0878527    
   1050000   281.29938     -1609.4165      411.09382     -359.82272     -12.622179    
   1055000   293.54577     -1629.5723      382.34219     -372.22593      1.7255229    
   1060000   299.81847     -1617.5751      431.04261     -292.83059     -7.2606937    
   1065000   299.42256     -1640.4993      394.70036     -353.27715      3.4576956    
   1070000   297.86593     -1627.0137      397.28192     -341.85003      5.1239341    
   1075000   297.54984     -1623.0177      388.90579     -347.17238     -11.145418    
   1080000   301.83041     -1633.7148      389.29927     -344.71645     -4.8050675    
   1085000   299.8252      -1642.4606      408.04817     -340.69044     -1.9103995    
   1090000   286.27543     -1615.6174      416.39954     -345.88517      4.6163743    
   1095000   306.81917     -1619.4996      398.16218     -306.76773     -12.636989    
   1100000   290.29465     -1616.9362      411.22356     -340.39939     -5.9322455    
   1105000   302.75115     -1633.8234      416.4786      -314.90109      4.2337913    
   1110000   314.15904     -1634.3681      420.84046     -277.07922      4.6385227    
   1115000   300.36849     -1614.1137      393.55        -325.22229      1.1421406    
   1120000   303.62423     -1605.7366      429.9307      -270.75969      2.9535121    
   1125000   287.69244     -1623.3619      411.83263     -353.97275     -4.5398979    
   1130000   302.83787     -1624.6906      415.83772     -306.15068      24.378568    
   1135000   305.65659     -1595.4948      417.18476     -267.20578     -7.4636138    
   1140000   299.66503     -1583.4163      405.64053     -284.53127      7.1442001    
   1145000   309.02421     -1585.6971      416.60414     -247.95049      6.2780771    
   1150000   289.40004     -1588.2602      408.9099      -316.70377     -3.3026058    
   1155000   301.75913     -1567.9376      433.36737     -235.08363     -2.7544635    
   1160000   290.90198     -1586.2135      433.22226     -285.86772     -13.39471     
   1165000   289.10881     -1581.6965      394.05525     -325.86286      20.06503     
   1170000   292.25405     -1603.5702      408.16187     -324.25449     -5.0804976    
   1175000   293.92485     -1597.97        412.85467     -308.98115     -17.215495    
   1180000   295.81119     -1581.1551      418.50077     -280.89738     -14.164355    
   1185000   295.44747     -1598.123       439.47817     -277.97205     -3.6759324    
   1190000   294.74935     -1592.4111      400.62818     -313.19108     -17.218734    
   1195000   315.83528     -1611.991       431.10885     -239.43715      15.877696    
   1200000   304.79732     -1613.0162      417.01779     -287.45551      22.094362    
   1205000   287.30032     -1617.7319      401.78637     -359.55784     -0.49852431   
   1210000   301.80617     -1608.9227      386.94627     -322.34957      1.7076151    
   1215000   307.79558     -1607.1834      413.35929     -276.34397      3.7432013    
   1220000   285.63617     -1600.6376      418.2144      -330.99606      4.8717578    
   1225000   300.57274     -1599.966       425.23083     -278.78491     -2.7455905    
   1230000   293.98475     -1586.5599      413.17166     -297.07555      13.799825    
   1235000   309.25863     -1586.9297      402.23367     -262.85476      10.81856     
   1240000   293.90478     -1587.7388      416.49196     -295.17256     -0.72670889   
   1245000   291.48728     -1575.8881      421.4058      -285.61407     -2.8822621    
   1250000   288.90322     -1554.0064      415.66124     -277.17954      2.6905975    
   1255000   302.68877     -1580.9607      417.63817     -261.06477     -7.5537332    
   1260000   295.51296     -1583.9323      408.43022     -294.63413     -4.0879138    
   1265000   312.66839     -1576.707       400.44552     -244.25646     -6.1692703    
   1270000   285.93041     -1586.3914      414.50918     -319.57796     -9.4249351    
   1275000   290.90662     -1594.5557      412.64733     -314.77099     -3.7283013    
   1280000   304.72554     -1600.2567      396.95587     -294.97188      15.568519    
   1285000   301.83631     -1579.533       421.71738     -258.09895      5.0156923    
   1290000   310.47848     -1590.7783      408.45489     -256.84603     -3.6841182    
   1295000   284.71956     -1575.4599      416.7552      -310.00975      9.0323126    
   1300000   306.8089      -1563.421       434.92275     -213.95925      12.562372    
   1305000   307.46035     -1560.9106      409.42177     -235.00789      2.3823908    
   1310000   308.68927     -1525.0477      406.45935     -198.44429     -1.9583896    
   1315000   291.70581     -1535.9765      410.76605     -255.6908      -2.3494067    
   1320000   317.2722      -1533.7872      416.38942     -171.66967     -3.6718037    
   1325000   303.524       -1543.2168      405.92367     -232.54572     -5.9974276    
   1330000   293.53242     -1537.7387      424.40402     -238.37033     -2.6371909    
   1335000   299.13361     -1544.4289      406.33636     -246.43208     -7.3487762    
   1340000   285.36715     -1551.784       440.77611     -260.38259      11.400014    
   1345000   304.90937     -1553.4288      387.97713     -256.5748      -7.4008052    
   1350000   293.379       -1545.2316      417.55649     -253.16799      7.2894732    
   1355000   305.91263     -1548.8563      397.60152     -239.38736      17.994897    
   1360000   295.15766     -1549.0325      416.67058     -252.55299      2.1123567    
   1365000   296.71721     -1544.3386      421.25937     -238.6216      -9.1184226    
   1370000   296.77315     -1544.6714      435.74364     -224.30335      5.1413028    
   1375000   297.69618     -1555.0454      427.5451      -240.12457      6.6034823    
   1380000   290.41816     -1563.8363      402.96601     -295.18888     -13.831229    
   1385000   299.73958     -1549.2869      394.65275     -261.16736     -16.648713    
   1390000   280.84684     -1531.8853      432.20287     -262.53131      1.4617398    
   1395000   302.8974      -1569.5528      403.53862     -263.13459      28.771571    
   1400000   284.78034     -1572.4445      388.80515     -334.76329      21.797331    
   1405000   285.17045     -1577.5479      390.50668     -337.00232     -21.129976    
   1410000   303.33984     -1565.8782      392.06415     -269.61557     -10.500646    
   1415000   291.83668     -1575.6818      392.96727     -312.80479      16.95785     
   1420000   298.79628     -1596.2542      415.99319     -289.60609     -0.63484142   
   1425000   287.93488     -1583.1937      400.42993     -324.48461      21.668334    
   1430000   301.69504     -1582.3294      396.54947     -286.48433     -4.4798631    
   1435000   297.04563     -1564.7087      382.0394      -297.23268      9.6522373    
   1440000   307.60567     -1563.6121      438.4169      -208.28112     -6.1826568    
   1445000   303.73394     -1565.7649      407.32147     -253.07023      9.3474505    
   1450000   302.65561     -1590.9191      400.64757     -288.1126      -9.2454008    
   1455000   302.73253     -1565.7665      405.09403     -258.28427     -6.9145206    
   1460000   287.86786     -1570.5105      412.67726     -299.75381      11.617345    
   1465000   299.00737     -1572.9969      404.79926     -276.91344     -8.1657346    
   1470000   295.09469     -1571.5002      424.76296     -267.11599      18.295995    
   1475000   307.75584     -1564.0397      430.61974     -216.05824      11.933952    
   1480000   300.27073     -1575.0074      411.1848      -268.7726      -16.059701    
   1485000   303.7282      -1586.2067      423.36265     -257.48802      15.387642    
   1490000   300.33261     -1561.7274      440.95496     -225.53804      1.3837652    
   1495000   292.03439     -1583.3698      435.5371      -277.33364     -15.637001    
   1500000   307.46469     -1564.1635      443.58899     -204.08066      4.6877976    
   1505000   308.14509     -1577.9733      440.29479     -219.1565       1.1007736    
   1510000   304.51121     -1585.0019      421.55641     -255.75543     -12.798742    
   1515000   297.21272     -1553.2961      385.31419     -282.04727     -20.266764    
   1520000   303.54056     -1588.0682      428.3507      -254.92076     -1.5394344    
   1525000   303.36356     -1579.9323      423.15123     -252.51189     -7.7821327    
   1530000   300.20603     -1592.0592      407.29213     -289.90994      12.256878    
   1535000   312.31813     -1586.897       409.32852     -246.6075       8.2495016    
   1540000   302.87891     -1607.9741      408.84262     -296.30701      13.672616    
   1545000   298.10308     -1592.254       398.67733     -304.98802      7.8855975    
   1550000   289.95315     -1597.5596      429.89929     -303.365        1.8822394    
   1555000   299.924       -1605.0655      427.15433     -283.89471      1.5648805    
   1560000   297.43422     -1615.2942      435.02254     -293.67673     -3.8855881    
   1565000   321.47013     -1610.5595      401.20664     -251.11148      1.3611228    
   1570000   299.80963     -1610.6629      413.83258     -303.15478     -1.2522587    
   1575000   295.41114     -1623.1389      431.6172      -310.95722      2.3291063    
   1580000   298.07121     -1593.8202      419.00932     -286.31723     -20.073286    
   1585000   302.12345     -1607.0125      413.63169     -292.80816      1.0149841    
   1590000   306.98709     -1594.9014      392.9846      -286.84655      9.9928244    
   1595000   303.02688     -1590.9525      413.99467     -273.69225      11.20406     
   1600000   308.21306     -1601.3647      404.09082     -278.54927      3.1570217    
   1605000   305.97536     -1594.0075      411.60591     -270.3472      -6.544452     
   1610000   298.59848     -1590.9505      409.33317     -291.55193      3.3082773    
   1615000   293.60855     -1593.8098      432.39573     -286.22276      4.9115555    
   1620000   292.4595      -1570.7427      431.65771     -267.31873     -7.8040619    
   1625000   292.69445     -1578.6472      433.12532     -273.05534     -14.752866    
   1630000   300.22737     -1592.2545      389.16892     -308.16478     -13.713095    
   1635000   307.77349     -1572.186       409.85293     -244.91873     -8.28614      
   1640000   290.4327      -1570.6488      366.44908     -338.47499      8.6171527    
   1645000   300.77252     -1577.0716      407.01242     -273.51344     -0.0038007365 
   1650000   302.52451     -1564.904       410.39888     -252.73701     -8.2282084    
   1655000   293.40092     -1565.2016      420.94509     -269.68412      9.6429377    
   1660000   294.6096      -1576.7107      398.50194     -300.03353     -0.90687574   
   1665000   301.52266     -1567.8527      390.90727     -278.16363     -8.4039823    
   1670000   301.99622     -1583.5749      380.14489     -303.23666     -1.1488181    
   1675000   306.72468     -1592.5317      440.68599     -237.55767      15.546004    
   1680000   292.21183     -1575.9634      408.71658     -296.21887      6.3214124    
   1685000   293.52734     -1569.7754      418.54446     -276.28166     -15.003846    
   1690000   303.4649      -1574.5171      403.36898     -266.5769      -30.072376    
   1695000   309.91069     -1555.9878      420.00392     -212.19895     -4.2322601    
   1700000   297.1573      -1568.9536      429.09579     -254.08835      11.168767    
   1705000   302.06335     -1569.9669      418.89857     -250.67483      10.418464    
   1710000   299.90776     -1563.6583      436.01249     -233.67771      8.5964468    
   1715000   292.55365     -1546.3256      403.09858     -271.18018     -4.9505303    
   1720000   294.45329     -1532.2664      422.7959      -231.76115      17.48902     
   1725000   305.61267     -1555.593       437.4987      -207.12094     -0.42893089   
   1730000   291.41558     -1551.5158      382.49074     -300.37053      1.3658105    
   1735000   312.33959     -1553.1045      413.19132     -208.88821      0.88239749   
   1740000   312.38902     -1536.4995      405.54926     -199.77786      0.036624085  
   1745000   294.86013     -1530.3348      390.18378     -261.22898     -5.5333151    
   1750000   292.4999      -1550.5392      408.13434     -270.51821      6.1527795    
   1755000   296.57606     -1546.0363      445.21834     -216.78105      14.096457    
   1760000   306.51176     -1539.4153      418.84925     -206.91269     -17.506921    
   1765000   299.87557     -1555.9287      406.1014      -255.95518     -19.463313    
   1770000   289.37317     -1572.3897      419.88232     -289.94098     -4.9197544    
   1775000   296.84673     -1566.9916      423.68863     -258.45925      17.189908    
   1780000   292.19824     -1564.7898      422.12175     -271.68063      11.861709    
   1785000   289.53299     -1581.1488      404.04475     -314.06116      6.8540131    
   1790000   295.48021     -1582.4832      409.09797     -292.61486     -16.415708    
   1795000   298.45097     -1577.8665      405.11258     -283.12827      2.5701711    
   1800000   306.11315     -1591.699       372.955       -306.27882      0.92210114   
   1805000   302.26965     -1586.3992      401.95801     -283.43279     -9.0576783    
   1810000   296.96408     -1588.9565      399.57025     -304.19272     -6.1833252    
   1815000   304.372       -1570.194       427.57122     -235.34763      0.16658411   
   1820000   301.40898     -1572.7981      418.71558     -255.6396      -10.877163    
   1825000   294.97346     -1578.8455      386.61937     -312.96628      3.9282365    
   1830000   302.79601     -1587.4999      417.43001     -267.49253     -10.365236    
   1835000   288.78556     -1599.0278      386.55798     -351.65492     -3.358403     
   1840000   293.85966     -1565.6511      432.58986     -257.12144     -9.061342     
   1845000   297.15784     -1578.1724      400.50306     -291.89826     -8.8765221    
   1850000   284.38511     -1594.9895      412.1934      -335.09809     -5.1598175    
   1855000   307.43411     -1587.0079      446.776       -223.82923      5.5747012    
   1860000   307.27997     -1554.5433      440.63058     -197.96947      10.728097    
   1865000   287.96703     -1602.3692      407.02429     -336.9699       5.45027      
   1870000   304.98694     -1592.2555      433.32973     -249.81764      18.771073    
   1875000   295.94525     -1597.5923      432.6624      -282.77329     -22.149791    
   1880000   300.1767      -1571.4718      431.73915     -244.96298     -18.563185    
   1885000   287.51892     -1592.5317      401.41434     -334.07808     -0.98543431   
   1890000   298.06635     -1590.5512      427.53347     -274.53862     -6.99983      
   1895000   298.44302     -1579.685       424.35554     -265.72747     -19.486996    
   1900000   298.85982     -1591.2952      417.50469     -282.94613      1.5148894    
   1905000   299.10623     -1580.4792      406.89155     -282.00881     -2.9043296    
   1910000   298.41619     -1570.187       400.50934     -280.15564      13.353579    
   1915000   302.03439     -1585.2031      405.77547     -279.12051     -21.337085    
   1920000   308.41786     -1591.1667      413.16294     -258.66873     -1.2674141    
   1925000   297.66688     -1585.4225      395.23001     -302.90403     -4.1576554    
   1930000   278.09172     -1610.8768      417.2268      -364.7114       16.303143    
   1935000   292.59238     -1590.7136      408.09093     -310.46037      16.303764    
   1940000   312.25029     -1592.0638      426.72564     -234.57939     -7.2738285    
   1945000   302.01533     -1587.5534      401.68862     -285.61442      0.59203584   
   1950000   304.94137     -1577.8549      416.99388     -251.88871     -24.905758    
   1955000   287.82784     -1568.3101      381.73415     -328.61584      6.2062201    
   1960000   302.87885     -1589.2739      432.64107     -253.80851      0.69675504   
   1965000   300.93361     -1579.7496      430.83522     -251.88847     -15.075877    
   1970000   304.95959     -1587.9098      419.28206     -259.60115     -11.7193      
   1975000   295.11421     -1601.7518      426.32064     -295.75173      1.4704514    
   1980000   307.41857     -1597.6118      420.51062     -260.74481     -6.1305441    
   1985000   301.07336     -1608.9444      399.1763      -312.32558     -12.691064    
   1990000   294.48755     -1598.0449      411.5315      -308.70199      10.263062    
   1995000   313.63868     -1612.033       388.45523     -288.6805       4.4426776    
   2000000   298.29762     -1590.6747      417.65664     -283.84951     -19.601096    
   2005000   308.35085     -1604.8269      405.40379     -280.28775      12.08756     
   2010000   299.39226     -1619.2222      398.59632     -328.1944       13.125881    
   2015000   304.7193      -1609.2645      416.21293     -284.74121     -9.268901     
   2020000   323.86331     -1579.1857      412.63988     -201.17078      18.662552    
   2025000   296.53296     -1585.6589      419.80297     -281.94753      9.6273953    
   2030000   302.61613     -1595.9554      422.17185     -271.74233      4.2806588    
   2035000   297.05086     -1589.3546      416.2683      -287.6341       9.0045282    
   2040000   297.98496     -1585.6095      429.93199     -267.44095      2.1951509    
   2045000   307.23863     -1595.4871      442.24938     -237.41771     -3.3089093    
   2050000   304.5354      -1572.61        417.80832     -247.03945      13.108863    
   2055000   301.48514     -1581.6056      389.42801     -293.50769     -1.0807521    
   2060000   316.29863     -1591.63        427.93027     -220.87357     -5.6041428    
   2065000   290.16535     -1557.1744      435.14948     -257.09709      3.3444872    
   2070000   294.77256     -1579.682       409.09571     -291.92527     -9.6669487    
   2075000   305.92968     -1566.7577      429.56977     -225.26964     -0.52677535   
   2080000   306.50151     -1537.3842      392.03603     -231.72543     -10.293825    
   2085000   308.52131     -1565.6672      418.18342     -227.84036      11.657948    
   2090000   310.06099     -1549.5226      425.96994     -199.31977      9.7528172    
   2095000   292.47816     -1571.925       423.71295     -276.39018      0.12961772   
   2100000   299.47409     -1575.753       413.10401     -269.97364     -20.834708    
   2105000   297.88694     -1593.0787      420.68878     -284.44552      8.8088953    
   2110000   303.33986     -1574.216       417.00359     -253.01387     -28.854239    
   2115000   290.48436     -1576.9178      381.31018     -329.72896      7.7441161    
   2120000   293.89408     -1580.2929      384.98323     -319.26729      6.437172     
   2125000   300.10084     -1573.8149      422.85973     -256.41159     -4.7369151    
   2130000   313.05607     -1575.9409      423.44534     -219.33485     -12.834418    
   2135000   301.65537     -1601.3336      430.75886     -271.39744     -3.7267059    
   2140000   288.36047     -1592.2792      393.45173     -339.27966      1.4559505    
   2145000   296.48209     -1583.5552      417.31732     -282.48106     -8.6351011    
   2150000   285.59897     -1569.2774      417.18965     -300.77146      4.751614     
   2155000   300.69762     -1593.292       427.16848     -269.80103      2.2186763    
   2160000   308.4145      -1582.022       412.48083     -250.21609      18.026448    
   2165000   290.49471     -1569.6347      409.63905     -294.08607      14.767697    
   2170000   301.35435     -1590.7459      441.63243     -250.83341     -5.2821763    
   2175000   289.55402     -1583.7852      397.77436     -322.90528      6.7980801    
   2180000   300.46457     -1588.9155      427.43939     -265.84834      2.4775449    
   2185000   305.25221     -1575.8877      424.0619      -241.92695     -10.726756    
   2190000   291.76112     -1545.7458      427.57516     -248.48614      1.9960114    
   2195000   297.27772     -1575.8456      404.69014     -285.02707     -4.1573938    
   2200000   299.73423     -1577.364       426.07601     -257.83722      3.226313     
   2205000   297.77955     -1571.6749      400.8579      -283.19275      13.026666    
   2210000   302.54995     -1580.5382      419.93041     -258.76382     -8.0142801    
   2215000   299.68609     -1541.7452      420.4143      -228.0236      -3.629326     
   2220000   297.86597     -1557.4159      400.18432     -269.34975     -7.4974215    
   2225000   285.51181     -1571.2845      373.80565     -346.42232      9.9771465    
   2230000   289.48018     -1576.0095      440.50627     -272.61779      1.8882044    
   2235000   305.06877     -1579.7328      406.79267     -263.58812      6.4307404    
   2240000   303.70519     -1590.6616      427.76714     -257.60701     -12.292506    
   2245000   291.58907     -1584.9572      402.53292     -313.25271     -2.8371816    
   2250000   310.2329      -1592.3357      405.26153     -262.32878     -5.4092099    
   2255000   307.24288     -1581.0015      414.04774     -251.12112      5.9426825    
   2260000   304.79595     -1590.6875      443.48245     -238.66621      7.8630062    
   2265000   319.93217     -1594.1061      403.29297     -237.15607     -8.540017     
   2270000   297.14896     -1576.0814      433.36678     -256.97003     -17.757633    
   2275000   293.08805     -1586.3919      393.59221     -319.15983      3.6484528    
   2280000   300.27719     -1604.1174      400.04661     -309.00155      1.3444046    
   2285000   300.38014     -1573.5903      449.21948     -228.99465     -10.590197    
   2290000   310.63115     -1597.3223      420.3849      -251.00496     -4.2982538    
   2295000   289.37931     -1591.9759      408.19281     -321.19831     -5.8301196    
   2300000   317.07309     -1590.4246      389.55441     -255.73552      5.5552303    
   2305000   294.15144     -1581.7108      419.15193     -285.74933      10.182853    
   2310000   303.72578     -1580.9444      424.20759     -251.38794      4.4456357    
   2315000   292.62121     -1590.1709      398.62745     -319.29518     -4.3432751    
   2320000   302.8374      -1598.1338      410.99385     -284.43914      15.533679    
   2325000   291.94896     -1573.8437      394.46739     -309.13192      8.4419855    
   2330000   297.08327     -1573.3269      392.57134     -295.20672      5.9608551    
   2335000   292.41596     -1564.8432      437.07817     -256.12857     -8.4691078    
   2340000   293.68273     -1592.9141      417.57418     -299.92755      16.098301    
   2345000   312.77303     -1591.266       414.6089      -244.34011      0.73592478   
   2350000   304.78982     -1601.6061      427.10769     -265.9779      -0.032854226  
   2355000   312.12645     -1604.5381      433.73093     -240.41756      17.651181    
   2360000   316.53039     -1601.2894      425.50299     -232.26941      11.698891    
   2365000   296.14601     -1599.8814      406.21909     -310.9073       21.252552    
   2370000   297.1568      -1591.2594      413.49261     -291.99876     -1.537371     
   2375000   302.09955     -1582.4932      406.75007     -275.24177     -9.8221612    
   2380000   297.83461     -1578.2824      374.70763     -315.78633      22.246825    
   2385000   299.04844     -1597.1843      408.35687     -297.42085     -2.7055197    
   2390000   302.85264     -1604.5421      420.14867     -281.64719     -9.3039921    
   2395000   312.27474     -1600.3761      403.49089     -266.05353     -12.28475     
   2400000   296.47166     -1586.708       438.59015     -264.39212      15.212819    
   2405000   312.49168     -1583.1354      426.08541     -225.57161      2.4803197    
   2410000   302.87409     -1595.8048      433.87996     -259.11466      6.8159635    
   2415000   294.41584     -1598.0238      377.06893     -343.3572      -3.9414495    
   2420000   297.7025      -1598.338       408.50195     -302.4414      -1.8569537    
   2425000   295.06207     -1607.3538      396.64489     -331.18494      1.6788387    
   2430000   309.41518     -1612.3783      402.46938     -287.60103      12.919007    
   2435000   287.04528     -1599.6371      407.17765     -336.83195     -15.769491    
   2440000   290.99908     -1620.4755      427.29925     -325.76329      18.310953    
   2445000   301.23251     -1599.06        380.53435     -320.60872      9.3148871    
   2450000   312.85278     -1609.5089      430.16413     -246.79011     -1.6183995    
   2455000   299.60803     -1626.397       399.54733     -333.77508      20.406359    
   2460000   300.88448     -1623.0622      422.6698      -303.51291      5.8965578    
   2465000   300.5794      -1638.5862      408.69324     -333.92286      7.5899011    
   2470000   297.50174     -1637.4375      415.13116     -335.51015     -3.5565766    
   2475000   296.54855     -1630.6339      401.29707     -345.38198     -1.8359145    
   2480000   287.52926     -1651.6828      382.69187     -411.92076     -1.6288139    
   2485000   300.20707     -1630.0402      419.39422     -315.78577     -0.68928873   
   2490000   300.26636     -1639.494       401.09325     -343.36379     -3.9256197    
   2495000   293.03336     -1636.2505      421.72395     -341.04972     -0.85516816   
   2500000   290.52411     -1647.7262      409.3749      -372.35413     -4.7902215    
   2505000   302.04119     -1645.1319      421.20485     -323.59962      13.368208    
   2510000   303.71932     -1647.0174      432.66894     -309.01881      12.897935    
   2515000   303.75993     -1637.8229      422.74167     -309.63053      2.0797425    
   2520000   295.01815     -1641.2077      431.84354     -329.97109     -1.4553551    
   2525000   294.37141     -1630.0721      429.95525     -322.65159      0.087520803  
   2530000   296.00686     -1636.9118      402.41422     -352.15734      17.390777    
   2535000   296.81328     -1633.763       435.01751     -314.00151     -14.931977    
   2540000   304.83137     -1641.6883      423.52844     -309.51547      9.9984066    
   2545000   312.2071      -1626.7923      427.8127      -268.34954     -29.720253    
   2550000   314.41819     -1630.044       420.296       -272.52705      7.454044     
   2555000   311.834       -1622.7202      437.93979     -255.26254     -5.1254326    
   2560000   293.03927     -1630.7985      421.88581     -335.4183       0.52640826   
   2565000   295.6252      -1628.2704      440.39116     -306.67665     -13.112164    
   2570000   296.09537     -1633.972       435.55264     -315.81532     -1.5349218    
   2575000   297.00604     -1622.323       419.67796     -317.32648     -6.9805209    
   2580000   314.13352     -1617.2367      420.62215     -260.24222     -4.1211508    
   2585000   291.67622     -1613.0237      390.20066     -353.39162      0.49344743   
   2590000   312.93645     -1624.4194      427.39276     -264.22248      1.2155814    
   2595000   297.96275     -1621.1124      390.98452     -341.9575      -24.65541     
   2600000   294.98536     -1623.478       380.48481     -363.69782      8.9296947    
   2605000   305.7082      -1625.3351      431.14309     -282.93399     -14.403913    
   2610000   294.15939     -1608.778       398.17443     -333.77026     -22.778753    
   2615000   295.32958     -1603.4325      406.108       -317.00314      9.1442374    
   2620000   314.1249      -1622.8522      413.14392     -273.3616       2.6763184    
   2625000   297.99999     -1589.3321      405.31648     -295.73428     -4.6717144    
   2630000   289.28402     -1594.5018      397.03542     -335.16566      16.408258    
   2635000   279.44598     -1603.0163      415.13183     -354.90906      14.90537     
   2640000   290.73259     -1620.7246      443.97762     -310.12834     -0.49728612   
   2645000   299.70956     -1625.5913      395.46471     -336.74932     -4.2881179    
   2650000   311.74772     -1599.089       421.8884      -247.93988      7.7176491    
   2655000   297.31047     -1604.2664      404.63183     -313.40853      16.081046    
   2660000   302.31098     -1615.8818      393.11381     -321.63639     -7.7319226    
   2665000   305.14173     -1586.3524      396.35229     -280.43062     -12.804956    
   2670000   306.48248     -1608.8273      434.77107     -260.49016      1.3146533    
   2675000   288.60221     -1593.2342      392.74062     -340.22521      1.9765623    
   2680000   305.12117     -1637.237       404.27131     -323.45744      0.22282568   
   2685000   295.71706     -1617.7881      413.47667     -322.83502     -0.50056012   
   2690000   321.37244     -1623.8405      398.93495     -266.95532      2.0790196    
   2695000   298.11963     -1614.7484      441.25349     -284.85695      17.230178    
   2700000   296.58333     -1612.3039      405.17252     -323.07278     -5.6597045    
   2705000   301.39575     -1625.7275      419.16929     -308.15473     -4.1511369    
   2710000   303.90959     -1622.1221      395.93644     -320.28885     -7.4449025    
   2715000   291.33308     -1602.9605      408.29622     -326.25568      3.4390121    
   2720000   315.9787      -1612.9185      427.91943     -243.12662     -5.5550512    
   2725000   308.1624      -1625.9749      437.9953      -269.40602      0.41613859   
   2730000   302.76038     -1605.3914      406.82639     -296.09383      0.25256712   
   2735000   296.74954     -1618.0672      443.43888     -290.07433      34.010621    
   2740000   305.23149     -1605.7838      419.25492     -276.6918       20.728645    
   2745000   301.57565     -1609.7983      429.72857     -281.13002      8.9298665    
   2750000   298.46134     -1610.0362      412.86442     -307.51523      5.7468871    
   2755000   301.25505     -1593.137       413.11621     -282.0367      -0.064419764  
   2760000   308.45127     -1611.065       403.64173     -287.9886       7.1742314    
   2765000   299.27874     -1600.4578      398.9967      -309.36799      4.2045013    
   2770000   292.71612     -1602.3188      389.99145     -339.79616      0.22250586   
   2775000   309.19832     -1619.1177      423.12284     -274.33341      2.7229753    
   2780000   289.58497     -1602.2157      421.78372     -317.2342       6.2844592    
   2785000   294.82594     -1594.5245      409.14252     -306.56184      11.884221    
   2790000   310.96702     -1589.487       431.94041     -230.61296     -5.2518743    
   2795000   295.80762     -1584.6402      404.68955     -298.20435     -2.0740036    
   2800000   291.99307     -1582.3734      415.09986     -296.89766      7.4709692    
   2805000   295.39944     -1579.9088      411.29969     -288.07947      2.0700129    
   2810000   299.34024     -1594.6701      417.91761     -284.47605      0.84048638   
   2815000   311.0705      -1577.7049      418.14769     -232.31515     -3.4977801    
   2820000   310.09976     -1576.0245      412.42803     -239.24799     -8.7449156    
   2825000   295.97808     -1591.3881      408.54181     -300.59182     -5.4403172    
   2830000   309.92439     -1579.1586      390.33138     -265.00149      16.981562    
   2835000   294.19789     -1584.063       412.19741     -294.91751      0.81880596   
   2840000   293.67531     -1610.2312      375.41355     -359.42727      9.2251514    
   2845000   302.23496     -1605.8601      440.51518     -264.43996      0.43510382   
   2850000   302.33364     -1596.086       420.76943     -274.11739     -8.9031117    
   2855000   295.58081     -1604.019       412.99162     -309.9571       11.855829    
   2860000   303.31437     -1605.5539      413.80007     -287.63127     -0.77069347   
   2865000   302.11898     -1602.0897      407.25847     -294.27196     -0.023688246  
   2870000   297.32153     -1601.5882      403.70273     -311.62651      5.11294      
   2875000   296.02054     -1601.9013      424.74256     -294.77779     -2.0449166    
   2880000   286.72844     -1615.2386      427.57342     -332.98214     -8.0087674    
   2885000   292.2353      -1609.8592      372.52519     -366.23608     -4.8066157    
   2890000   288.03144     -1599.6097      409.24408     -331.79861      5.8113228    
   2895000   304.75111     -1604.2702      393.4576      -302.40746      14.481211    
   2900000   301.29611     -1606.7201      376.39403     -332.21963      2.6161127    
   2905000   293.75091     -1602.9716      407.67694     -319.67896     -14.849331    
   2910000   306.19381     -1621.0384      404.47605     -303.85672     -0.80406723   
   2915000   304.51229     -1600.7699      416.1476      -276.92897      10.295537    
   2920000   295.96067     -1615.1562      421.67975     -311.27385      3.102338     
   2925000   306.96145     -1603.5164      411.55568     -276.96695     -2.6182013    
   2930000   301.61882     -1604.6277      389.35451     -316.20482     -13.220064    
   2935000   288.40613     -1622.7619      438.54763     -324.53036     -9.2754669    
   2940000   295.71727     -1626.6052      404.63775     -340.49041     -7.4147657    
   2945000   300.19203     -1617.8245      420.76718     -302.24193      1.6769682    
   2950000   301.36982     -1625.9514      414.15155     -313.4737      -10.087006    
   2955000   290.99746     -1628.3235      414.79337     -346.12193     -13.427268    
   2960000   298.52356     -1620.9771      426.79729     -304.33776     -18.418263    
   2965000   307.02515     -1626.3782      390.66613     -320.52841      6.8799521    
   2970000   314.90928     -1623.1415      414.45311     -270.00364     -1.884786     
   2975000   316.4765      -1630.1716      395.41736     -291.39795     -3.7277728    
   2980000   297.2924      -1618.8548      422.66535     -310.01723     -0.31101685   
   2985000   300.6015      -1626.4247      389.74373     -340.64496     -2.6316881    
   2990000   300.631       -1631.8878      430.30212     -305.46178     -14.992909    
   2995000   292.17349     -1625.4537      417.82101     -336.71902      4.0598108    
   3000000   305.40596     -1613.151       395.2116      -307.58227     -8.4047148    
   3005000   294.60598     -1636.4448      388.00907     -370.27123      5.6314551    
   3010000   300.52474     -1610.5672      385.38328     -329.37672      5.1203489    
   3015000   299.40483     -1604.76        403.21827     -309.07284      3.3559533    
   3020000   290.54543     -1608.5073      413.23758     -329.20897     -16.488282    
   3025000   296.17216     -1619.8058      416.82769     -320.14514     -16.550699    
   3030000   300.23179     -1610.3826      414.10205     -301.34664     -21.707395    
   3035000   290.74096     -1614.9546      404.1438      -344.16718     -18.031184    
   3040000   316.49192     -1606.6379      414.99304     -248.24259     -1.0020888    
   3045000   299.46253     -1629.6085      447.45481     -289.51281     -1.5944297    
   3050000   301.2015      -1630.865       400.60603     -332.43449      14.346174    
   3055000   300.00636     -1614.086       431.74471     -288.07936      6.111764     
   3060000   296.68889     -1641.5054      428.49804     -328.63417      10.643449    
   3065000   297.10507     -1628.6197      418.41298     -324.59294      3.6442121    
   3070000   311.12435     -1626.6069      393.64514     -305.55918     -4.5644503    
   3075000   299.3785      -1620.9744      411.71791     -316.86606      1.3889681    
   3080000   302.11218     -1628.294       441.06514     -286.68981     -5.986092     
   3085000   310.38732     -1649.6499      391.54958     -332.89466     -11.074547    
   3090000   285.55727     -1629.7031      410.94645     -367.56468      5.0508788    
   3095000   291.73777     -1626.726       420.78511     -336.32599     -2.9287358    
   3100000   303.29233     -1640.2386      415.52023     -320.6615       4.7164426    
   3105000   295.55486     -1625.8724      423.70475     -321.17475      3.7965369    
   3110000   298.07423     -1616.5069      416.53575     -311.46845     -3.9242101    
   3115000   300.41794     -1627.4318      413.23094     -318.71204     -16.925948    
   3120000   292.51787     -1609.4194      386.20739     -351.27178     -32.833087    
   3125000   308.17805     -1625.9999      438.6294      -268.75028      8.5696997    
   3130000   294.80918     -1600.4832      407.50972     -314.20328     -4.6985213    
   3135000   302.64508     -1613.2223      432.46969     -278.62515     -1.6823333    
   3140000   290.63916     -1588.6456      397.00107     -325.30444      13.176714    
   3145000   299.59264     -1579.0891      445.45529     -240.60501      8.614277     
   3150000   286.63647     -1574.7143      389.0445      -331.26091      15.955321    
   3155000   302.17422     -1584.9803      411.41574     -272.84057     -2.682804     
   3160000   308.8265      -1590.6164      405.32918     -264.73405      4.2473233    
   3165000   289.56414     -1586.6679      434.89888     -288.63337      7.9349652    
   3170000   301.60521     -1610.2812      405.228       -306.0254       1.8330526    
   3175000   296.27908     -1591.5839      386.24484     -322.18745      13.135293    
   3180000   295.63542     -1603.4444      446.85212     -275.35921     -4.0047254    
   3185000   301.30888     -1595.0467      424.79014     -272.11206      0.94276837   
   3190000   304.1391      -1602.1943      427.59492     -268.01847      2.6929784    
   3195000   314.76698     -1608.5488      430.17639     -240.11184      6.6195866    
   3200000   302.26703     -1605.3721      392.72054     -311.65099     -4.4734698    
   3205000   300.04035     -1583.4885      406.98196     -282.14328     -12.312444    
   3210000   303.42548     -1592.9296      370.99916     -317.47672     -0.70619509   
   3215000   302.4265      -1599.1178      452.26389     -245.37793     -6.673768     
   3220000   301.73545     -1583.6297      429.89828     -254.31537      22.629795    
   3225000   290.65382     -1590.3609      426.30399     -297.67306     -10.21765     
   3230000   290.9594      -1573.4097      435.31077     -270.80425      7.6679855    
   3235000   313.57831     -1599.4558      411.67599     -253.06246     -0.79486752   
   3240000   283.46055     -1580.3975      420.10391     -315.35152     -29.695799    
   3245000   293.47506     -1579.1922      417.77252     -286.62627     -23.31335     
   3250000   306.76873     -1577.8401      409.57142     -253.84938     -12.621023    
   3255000   302.57659     -1600.37        418.76824     -279.67842      6.2386019    
   3260000   305.73267     -1593.2509      370.47391     -311.44599      2.5464292    
   3265000   285.13529     -1595.1363      400.74334     -344.4588      -3.7904129    
   3270000   294.37869     -1577.8769      397.7941      -302.59584     -11.987139    
   3275000   290.22687     -1571.4912      381.36123     -325.01875      3.9564251    
   3280000   294.10411     -1567.7963      425.30009     -265.82771     -5.751892     
   3285000   319.11721     -1575.418       366.87643     -257.31372      15.972038    
   3290000   313.37233     -1584.1143      391.52615     -258.48476      0.44045885   
   3295000   305.67536     -1602.9433      438.4879      -253.29519     -7.0795676    
   3300000   290.75716     -1567.3221      409.08036     -291.5499      -2.826533     
   3305000   292.82983     -1592.3189      427.98753     -291.46131      7.1663158    
   3310000   300.38692     -1588.3263      405.64756     -287.28236      2.5398124    
   3315000   305.36039     -1573.4274      432.85355     -230.35253      2.7759856    
   3320000   303.51245     -1582.6564      388.29823     -289.64517      13.333188    
   3325000   301.58775     -1588.8959      400.05066     -289.86947     -19.953686    
   3330000   300.69745     -1594.439       397.80496     -300.31203     -7.3767341    
   3335000   300.66583     -1584.4138      392.91447     -295.27156     -17.93672     
   3340000   304.67089     -1584.7663      421.77592     -254.82433      5.2877457    
   3345000   295.45136     -1571.6814      418.87839     -272.11869     -5.8034882    
   3350000   298.56936     -1594.3052      413.18052     -291.1461       8.4475741    
   3355000   284.60226     -1591.3787      408.049       -334.98442     -3.4646914    
   3360000   301.64382     -1572.6105      379.2045      -294.26311     -0.32659483   
   3365000   313.69667     -1572.3351      426.43885     -210.82603     -2.7839518    
   3370000   305.30291     -1589.5855      397.39213     -282.14335      6.0487919    
   3375000   305.78271     -1581.9237      440.33565     -230.10793     -8.2377452    
   3380000   297.29317     -1590.5108      397.78633     -306.54997      12.905367    
   3385000   301.93068     -1600.4511      399.22759     -301.22554      3.6624261    
   3390000   296.67139     -1591.4785      408.14633     -299.01108     -4.5363013    
   3395000   285.79412     -1573.507       447.3631      -274.24593     -6.69407      
   3400000   306.84585     -1593.2707      403.55957     -275.06196      16.189088    
   3405000   300.17848     -1570.1044      401.40867     -273.9207      -14.741646    
   3410000   307.4473      -1608.2789      418.28088     -273.55602      1.7729638    
   3415000   298.41196     -1588.1215      429.33103     -269.28108     -6.0756052    
   3420000   290.22552     -1580.3626      410.58837     -304.66705     -6.6989143    
   3425000   309.83266     -1591.6641      417.52501     -250.58675     -17.680224    
   3430000   290.27837     -1592.6259      387.22441     -340.13681     -3.3196799    
   3435000   312.46815     -1603.2826      425.4675      -246.40685      17.551682    
   3440000   302.54634     -1577.5258      418.35605     -257.3366      -7.3394007    
   3445000   292.3653      -1600.0446      407.04684     -321.51234      13.292147    
   3450000   305.00931     -1590.8675      433.52737     -248.16531     -4.2798835    
   3455000   302.65462     -1598.9358      407.88318     -288.89669      6.0661241    
   3460000   297.9342      -1572.9165      400.52958     -284.30166     -2.3161232    
   3465000   300.10682     -1599.9783      431.33053     -274.08635     -10.999141    
   3470000   286.20932     -1602.5354      410.94997     -338.44984     -11.55242     
   3475000   299.06678     -1593.1465      416.92915     -284.75612     -10.181907    
   3480000   301.06221     -1594.5292      408.80868     -288.31129     -1.7664443    
   3485000   299.22421     -1617.0066      437.72172     -287.35431      4.3730549    
   3490000   298.84351     -1596.8122      423.84925     -282.16719     -7.5958844    
   3495000   281.32051     -1607.8525      420.64257     -348.64694     -7.449724     
   3500000   313.31612     -1598.3992      392.70154     -271.76179      5.2746504    
   3505000   296.81444     -1608.7512      402.22292     -321.78081      14.997977    
   3510000   289.90054     -1593.5359      407.63287     -321.76455     -7.7832825    
   3515000   287.78573     -1571.6091      407.93512     -305.83938     -4.9551232    
   3520000   313.81343     -1603.348       401.08376     -266.84602     -4.5791973    
   3525000   299.64345     -1606.1107      412.95182     -299.9787      -17.261273    
   3530000   304.52315     -1580.0843      429.65207     -242.70658      14.070111    
   3535000   296.42744     -1599.1293      419.72221     -295.81317      2.5046215    
   3540000   300.58777     -1584.6139      410.40931     -278.20956     -18.765964    
   3545000   294.98887     -1607.3018      411.4101      -316.58591      0.54274084   
   3550000   297.49106     -1603.7118      403.31057     -313.63686     -2.1574456    
   3555000   296.02969     -1597.9536      405.35793     -310.18742      5.0072958    
   3560000   297.12205     -1608.4619      387.29716     -335.50039      8.4879821    
   3565000   305.52774     -1606.9402      413.54504     -282.675        5.5285966    
   3570000   289.46574     -1598.8645      406.92154     -329.10055      12.807607    
   3575000   293.73623     -1584.4865      380.17369     -328.74087      7.0123582    
   3580000   298.93852     -1606.9609      415.50913     -300.37283      28.888305    
   3585000   301.13673     -1610.072       422.28814     -290.15245     -9.698783     
   3590000   301.51407     -1596.3746      429.85209     -267.76637      7.1588707    
   3595000   298.36735     -1621.2135      396.3584      -335.47867     -18.693611    
   3600000   296.9767      -1614.0373      422.01531     -306.79091     -1.7631253    
   3605000   297.02787     -1614.4777      402.31337     -326.78066      5.0552963    
   3610000   298.87294     -1592.4908      427.87907     -273.72826      19.507865    
   3615000   290.24781     -1604.0719      400.25712     -338.64116     -24.231457    
   3620000   297.93332     -1602.0562      406.29952     -307.67401     -10.77988     
   3625000   298.63907     -1619.4955      396.25785     -333.05131     -2.3802842    
   3630000   299.45228     -1603.1588      412.50277     -298.04567      1.9252604    
   3635000   301.47695     -1606.6471      413.15346     -294.84812     -11.676275    
   3640000   287.31209     -1578.8536      418.33074     -304.10013     -16.162798    
   3645000   297.36736     -1591.5783      439.87794     -265.30473      7.050451     
   3650000   282.21072     -1610.9185      418.46873     -351.23318      16.720498    
   3655000   315.85214     -1590.7035      416.71673     -232.49158      1.1128299    
   3660000   309.24058     -1611.9101      383.92641     -306.19624      6.7178311    
   3665000   290.37727     -1580.6993      418.93151     -296.20833      11.263468    
   3670000   301.04694     -1603.3104      406.90898     -299.03763     -9.7604729    
   3675000   302.09446     -1610.8335      380.12895     -330.21839      5.0897241    
   3680000   292.72512     -1619.2727      423.69332     -323.02142     -3.0072964    
   3685000   293.14099     -1615.2622      423.6077      -317.85691     -0.051867586  
   3690000   310.01624     -1606.9945      388.31506     -294.57987     -2.551979     
   3695000   300.60254     -1626.921       407.54583     -323.33611      4.1251713    
   3700000   307.19855     -1621.1213      440.71586     -264.70497     -5.8699914    
   3705000   305.76797     -1595.6785      421.99695     -262.24533     -4.3750053    
   3710000   304.04266     -1613.1779      408.88142     -298.00303     -6.9597135    
   3715000   305.24683     -1612.903       411.61663     -291.40356      15.400201    
   3720000   306.60744     -1607.7555      413.51929     -280.29764     -5.0667448    
   3725000   284.77785     -1614.516       396.23032     -369.41696     -0.14187832   
   3730000   296.99003     -1632.4381      406.76304     -340.40424     -9.0844263    
   3735000   285.00829     -1620.9592      420.18585     -351.21778     -15.475042    
   3740000   297.68383     -1634.1789      379.86074     -366.97918     -11.196924    
   3745000   299.42674     -1624.1085      394.87016     -336.70412     -0.8849189    
   3750000   300.43753     -1637.5183      452.89713     -289.07396      6.6489477    
   3755000   300.48034     -1631.1989      429.31795     -306.20609      5.1708872    
   3760000   302.21478     -1633.3127      410.40252     -322.0653      -6.140995     
   3765000   300.39914     -1652.8579      424.24102     -333.1841       9.5953566    
   3770000   293.05757     -1636.4567      405.45403     -357.45368     -7.6821133    
   3775000   301.91169     -1626.7262      419.79259     -306.99221     -0.85843342   
   3780000   312.92075     -1625.7526      418.97306     -274.02218     -3.7804458    
   3785000   302.8841      -1637.1937      397.35548     -336.99824     -2.6509917    
   3790000   300.93512     -1634.8327      436.44464     -301.35766     -3.552004     
   3795000   295.6296      -1661.308       409.10534     -370.98697     -19.728784    
   3800000   301.10951     -1640.0821      421.14723     -321.3846       3.344333     
   3805000   296.33656     -1654.4722      401.58306     -369.56615     -7.6247929    
   3810000   299.04761     -1636.2523      424.27273     -320.57545      5.7673954    
   3815000   293.36653     -1621.9893      424.94421     -322.57521     -3.769364     
   3820000   314.43886     -1641.9068      438.95709     -265.66716      11.318113    
   3825000   277.18582     -1642.1813      393.61466     -422.32841     -3.2627346    
   3830000   291.25459     -1624.1267      406.09411     -349.85797      3.1146899    
   3835000   305.64493     -1635.3753      398.20002     -326.1058       1.8550477    
   3840000   299.33072     -1618.1668      432.25766     -293.66111     -3.3616381    
   3845000   308.93154     -1636.4359      414.67341     -300.89622     -17.463083    
   3850000   295.3454      -1640.3087      383.83277     -376.10735     -5.5882608    
   3855000   317.24292     -1633.6497      397.21429     -290.79449      9.4389853    
   3860000   300.98336     -1637.3535      396.39889     -343.78038      3.5204337    
   3865000   314.30636     -1630.668       406.69353     -287.08692     -10.419369    
   3870000   312.32248     -1631.3046      413.3947      -286.93595      5.9558148    
   3875000   298.76915     -1642.2972      405.05741     -346.6657      -1.9566708    
   3880000   298.13692     -1639.1729      414.00762     -336.47579      27.465614    
   3885000   308.8501      -1629.8372      410.455       -298.7587      -12.70664     
   3890000   302.72812     -1673.6186      435.78752     -335.45604     -1.9768736    
   3895000   297.85138     -1642.6806      421.41426     -333.42797     -0.4219777    
   3900000   304.36558     -1658.8529      428.42883     -323.16813     -25.956805    
   3905000   300.62394     -1639.3843      436.97235     -306.30912     -3.2972574    
   3910000   306.65122     -1653.4989      408.46079     -330.96907      2.9330315    
   3915000   320.83973     -1670.1409      412.7191      -301.05949     -9.8043652    
   3920000   298.49767     -1650.1592      402.1415      -358.25281     -2.8728987    
   3925000   293.96241     -1642.7246      405.26255     -361.21591     -2.4799723    
   3930000   305.20753     -1663.0265      423.23191     -330.02887      5.5894746    
   3935000   304.79227     -1647.8343      394.98909     -344.3174      -20.404259    
   3940000   291.06812     -1662.5784      418.58219     -376.37739     -3.3713523    
   3945000   294.19567     -1643.8975      423.22232     -343.7338       5.5597802    
   3950000   288.26946     -1647.7102      419.57529     -368.85844     -1.2328622    
   3955000   300.52038     -1673.9159      404.40917     -373.71254     -1.3988703    
   3960000   298.74387     -1656.9327      423.13842     -343.29555      6.3673404    
   3965000   295.61402     -1652.7113      435.69148     -335.85058      5.0396176    
   3970000   293.89022     -1655.8343      415.07784     -364.72551     -4.5948658    
   3975000   294.68088     -1655.1309      433.7584      -342.98476      16.531432    
   3980000   300.4012      -1633.4208      400.99636     -336.98553     -27.738384    
   3985000   293.54628     -1649.4314      410.3931      -364.03259      13.68845     
   3990000   292.58752     -1622.5024      393.20782     -357.14673     -6.8995854    
   3995000   279.13105     -1615.4671      412.31832     -371.11213      15.057756    
   4000000   298.76532     -1646.9692      388.9586      -367.44794      12.565788    
   4005000   300.21159     -1631.1575      436.5524      -299.73134      8.6044301    
   4010000   303.43204     -1649.2424      380.52496     -364.24419      8.0536557    
   4015000   303.65447     -1629.8749      431.74148     -292.99709     -6.4121614    
   4020000   316.17322     -1638.661       439.71483     -256.49389      9.7631682    
   4025000   300.21276     -1634.9451      423.81411     -316.2538      -1.566581     
   4030000   291.31361     -1612.3806      434.96044     -309.06964     -16.500446    
   4035000   298.21253     -1624.7049      424.48497     -311.30501      8.3389043    
   4040000   298.18769     -1629.5391      390.2609      -350.43735     -4.3239305    
   4045000   310.08054     -1615.1671      419.95499     -270.9209      -6.7805161    
   4050000   281.94246     -1624.206       393.88435     -389.90472      5.030381     
   4055000   298.16119     -1596.2865      414.06239     -293.46221      6.7846582    
   4060000   294.82638     -1610.9612      421.22436     -310.91542     -7.7688088    
   4065000   302.61131     -1596.7982      383.56793     -311.20348     -0.10001316   
   4070000   315.17933     -1592.5517      408.30291     -244.7591       3.2388628    
   4075000   300.18711     -1581.6999      401.44637     -285.45281     -17.033696    
   4080000   304.9678      -1579.9175      420.76509     -250.10131     -12.246117    
   4085000   313.20557     -1581.4602      439.21292     -208.64102     -19.30506     
   4090000   285.32228     -1604.5724      403.84113     -350.23975     -4.8407861    
   4095000   297.4979      -1607.6899      417.8907      -303.01444     -0.21956043   
   4100000   301.58214     -1600.5354      429.86075     -271.71559     -1.3538254    
   4105000   290.53703     -1594.3479      404.04821     -324.26404     -2.6779149    
   4110000   301.03176     -1581.9911      407.77875     -276.89384     -11.943138    
   4115000   286.79904     -1586.9721      401.47915     -330.59945      4.4832887    
   4120000   299.19095     -1598.7513      401.79689     -305.12297      12.798789    
   4125000   304.12199     -1599.1007      387.77116     -304.79964     -1.6739683    
   4130000   295.37233     -1592.8398      418.48945     -293.90154     -6.6793941    
   4135000   308.02877     -1588.816       414.92566     -255.71503     -1.2589965    
   4140000   286.69294     -1583.8509      432.06794     -297.20572      9.9331747    
   4145000   296.74809     -1559.3565      399.72025     -275.0866      -5.6683498    
   4150000   309.27567     -1563.108       382.58904     -258.62696      18.352595    
   4155000   315.44295     -1599.9128      392.45222     -267.18511     -7.7354531    
   4160000   311.62545     -1582.4558      380.08435     -273.47517     -14.825161    
   4165000   308.56341     -1582.1935      413.24517     -249.17945     -18.917781    
   4170000   299.36832     -1594.2454      419.1318      -282.75347      21.193971    
   4175000   311.08262     -1594.0057      398.3477      -268.37978      20.082735    
   4180000   309.37921     -1589.8864      404.28369     -263.40208     -2.1185568    
   4185000   313.90107     -1598.8956      443.02957     -220.18656     -1.8291143    
   4190000   297.39081     -1589.1795      402.29122     -300.42276      19.869343    
   4195000   304.36997     -1602.7927      409.52614     -285.99748      7.8050672    
   4200000   301.00553     -1564.6528      414.3531      -253.05944     -11.326787    
   4205000   302.27413     -1586.9527      410.6021      -275.32885      1.7620392    
   4210000   296.71016     -1604.1807      405.38889     -314.3552      -5.0037673    
   4215000   298.62012     -1590.3784      404.32177     -295.92679     -4.3341973    
   4220000   304.13306     -1588.3804      425.59832     -256.21924     -15.47042     
   4225000   293.92881     -1560.19        395.56993     -288.47411     -1.2858725    
   4230000   297.93031     -1571.7043      422.72288     -260.90776      10.537058    
   4235000   294.01132     -1596.3707      407.39055     -312.58822      14.818591    
   4240000   305.70724     -1579.8439      374.87374     -293.71496     -0.92170021   
   4245000   290.56419     -1605.3308      401.60382     -337.61034     -8.0906881    
   4250000   300.77091     -1617.5729      422.04031     -298.99163     -24.209031    
   4255000   290.67443     -1623.7206      414.50577     -342.76954      0.78437712   
   4260000   296.33604     -1591.4427      407.53333     -300.58791      4.2841465    
   4265000   317.24442     -1623.9102      409.07927     -269.18563     -12.245923    
   4270000   300.18411     -1615.2591      405.09531     -315.37198     -4.5697913    
   4275000   302.61389     -1617.4463      406.86691     -308.54489     -14.321131    
   4280000   288.17266     -1612.0792      411.85647     -341.23473     -19.906918    
   4285000   302.59232     -1611.2209      408.63151     -300.61918      5.5787551    
   4290000   298.89715     -1632.0103      401.53068     -339.52398      10.211184    
   4295000   291.65142     -1640.1435      420.59415     -350.19186     -15.861793    
   4300000   298.90657     -1629.0111      406.96412     -331.06323     -15.166167    
   4305000   286.72554     -1629.4889      395.61497     -379.19957      1.8049845    
   4310000   300.07173     -1609.1848      416.84242     -297.88557     -8.659324     
   4315000   310.71014     -1624.4082      418.40334     -279.83689      6.8820709    
   4320000   309.90665     -1614.6052      399.13277     -291.69961      5.2853489    
   4325000   306.99318     -1632.0628      418.46932     -298.50511     -6.9030249    
   4330000   305.35767     -1620.6095      389.2914      -321.1049      -12.520972    
   4335000   296.84581     -1634.6827      424.93712     -324.90465      10.099155    
   4340000   298.61523     -1625.3093      442.26857     -292.92549     -4.2571581    
   4345000   303.93878     -1613.5187      396.96339     -310.57157      14.208624    
   4350000   305.29618     -1604.9164      411.92263     -282.9638       8.367231     
   4355000   295.02894     -1621.7801      409.39965     -332.95519      5.276526     
   4360000   293.42601     -1625.7458      428.84971     -322.24888      20.092026    
   4365000   303.5594      -1629.7388      410.9488      -313.93713     -7.0797858    
[...]
  23945000   305.83491     -1648.1205      434.5282      -301.95649      2.5147201    
  23950000   292.9671      -1652.3737      404.92121     -374.17323     -7.0431712    
  23955000   295.39779     -1614.5311      389.73724     -344.26912     -5.1124432    
  23960000   296.40328     -1637.2072      421.66589     -332.01947      2.5786032    
  23965000   301.52822     -1623.5392      399.96113     -324.77968     -21.281054    
  23970000   309.08371     -1625.7058      429.41866     -274.96734      8.7490495    
  23975000   296.11699     -1633.614       389.00237     -361.94317     -15.877971    
  23980000   303.571       -1612.8395      408.79915     -299.15288      15.541571    
  23985000   305.06751     -1618.4359      408.29693     -300.79066     -11.447966    
  23990000   302.92587     -1636.0945      397.99302     -335.13698     -10.58072     
  23995000   296.79892     -1620.9107      409.01172     -327.19775      14.175144    
  24000000   306.7661      -1642.7623      406.39909     -321.95174      8.0869689    
  24005000   286.70304     -1636.0941      411.82738     -369.65941      2.069584     
  24010000   306.35283     -1622.3525      416.75454     -292.41837      0.7622847    
  24015000   306.40464     -1641.1743      416.69015     -311.15009     -2.4604642    
  24020000   305.30438     -1623.4869      424.47469     -288.95785     -7.6637364    
  24025000   302.00328     -1632.3828      401.5002      -330.66819     -1.4567776    
  24030000   306.62433     -1635.7256      387.21049     -334.52621     -8.5750064    
  24035000   291.0761      -1625.6589      422.99049     -335.0258       2.3967337    
  24040000   307.71039     -1624.083       425.44579     -281.41101     -13.73169     
  24045000   297.64269     -1645.1086      396.87205     -361.02025     -7.2614265    
  24050000   311.244       -1623.4936      408.60834     -287.12601      17.052196    
  24055000   294.35077     -1631.9969      392.79613     -361.797        2.153065     
  24060000   306.4208      -1610.3629      410.40162     -286.57903     -12.327776    
  24065000   295.89053     -1643.1396      408.29897     -352.84719     -11.976976    
  24070000   306.28545     -1612.105       384.83416     -314.29206      1.6411738    
  24075000   295.71111     -1628.9399      422.56949     -324.91179     -6.8149671    
  24080000   288.4637      -1641.7756      411.39943     -370.5207       7.3887512    
  24085000   286.99514     -1640.459       415.57851     -369.40251     -0.51828919   
  24090000   306.06677     -1637.8649      389.65842     -335.87952     -9.2045022    
  24095000   289.29908     -1615.0912      403.52863     -349.21691      8.3251169    
  24100000   302.94918     -1615.0852      387.85541     -324.19582     -6.3463436    
  24105000   297.58007     -1611.3868      406.62715     -317.72999      9.4073151    
  24110000   297.91882     -1625.9215      406.50827     -331.37378      20.02991     
  24115000   299.5173      -1633.9534      412.95043     -328.19878      14.895352    
  24120000   299.96552     -1627.8448      400.93835     -332.76619     -17.518591    
  24125000   295.03588     -1606.8049      400.53568     -326.82327     -35.309913    
  24130000   302.72821     -1608.9436      405.68579     -300.88247      9.5103179    
  24135000   311.04385     -1591.7804      422.46523     -242.15249     -6.5053177    
  24140000   298.69943     -1617.8093      432.24806     -295.19501      16.814167    
  24145000   305.59733     -1614.6899      418.92733     -284.83501      4.8968111    
  24150000   304.45084     -1625.6952      410.6934      -307.49163      18.368762    
  24155000   295.35693     -1615.6323      393.27151     -341.95792     -4.1499056    
  24160000   296.69251     -1630.7916      402.86374     -343.54381     -9.4290809    
  24165000   294.30053     -1626.7193      436.55323     -312.91214      0.9103524    
  24170000   298.83915     -1632.6757      437.68183     -304.21108      10.747534    
  24175000   287.14227     -1614.2326      391.82118     -366.49488      2.3392085    
  24180000   285.18048     -1632.3136      394.61937     -387.62544     -2.4117792    
  24185000   298.80575     -1643.1789      423.62327     -328.87239     -0.26103348   
  24190000   288.34499     -1629.9021      401.93286     -368.46754     -3.2770398    
  24195000   292.87975     -1627.4832      423.17056     -331.29369     -9.1006267    
  24200000   299.7494      -1642.0118      404.55498     -343.9608      -8.5638179    
  24205000   283.8588      -1629.4716      410.33841     -373.00403     -10.507381    
  24210000   289.54654     -1637.3095      426.18318     -348.04311     -2.7291508    
  24215000   298.90049     -1631.2562      377.55388     -362.73672     -6.8832784    
  24220000   297.7913      -1616.8696      453.51357     -275.69672     -2.9499252    
  24225000   298.51968     -1645.6858      412.97493     -342.88038     -2.3276617    
  24230000   299.69481     -1640.2099      401.37283     -345.5038      -13.380558    
  24235000   289.31673     -1646.4639      377.9698      -406.09591     -4.1000523    
  24240000   295.4829      -1631.6344      402.72953     -348.12652      1.6572764    
  24245000   311.60032     -1618.8385      395.71085     -294.30629      1.0000286    
  24250000   303.97207     -1626.6509      417.65362     -302.91428     -2.6180118    
  24255000   306.42557     -1626.2864      430.40172     -282.48822      16.347344    
  24260000   306.44571     -1624.5846      394.37062     -316.75753     -7.4486807    
  24265000   300.75485     -1649.5189      393.95484     -359.07094      18.297639    
  24270000   296.69095     -1621.2103      422.40647     -314.42443      8.3300236    
  24275000   307.40557     -1618.153       401.18919     -300.64623     -11.538969    
  24280000   295.03088     -1642.2389      407.25982     -355.54806      4.497634     
  24285000   304.43582     -1626.9399      409.41065     -310.06392     -2.051255     
  24290000   293.90524     -1638.4681      409.77228     -352.62012      14.278617    
  24295000   308.64725     -1645.6897      402.66107     -323.0098       7.6147874    
  24300000   312.05931     -1650.1544      417.86121     -302.10366     -24.160192    
  24305000   284.2089      -1658.5394      425.66929     -385.69736     -9.8782973    
  24310000   300.45574     -1655.5207      423.22603     -336.69321     -21.440693    
  24315000   302.78195     -1651.5372      401.64105     -347.36064      6.151337     
  24320000   292.28997     -1664.8919      384.7593      -408.87174     -3.4482239    
  24325000   306.29568     -1657.1188      432.69857     -311.41098     -7.7857988    
  24330000   298.90668     -1641.0461      393.14202     -356.92007     -20.453012    
  24335000   297.07692     -1642.2181      400.21379     -356.47448     -1.6731186    
  24340000   296.44517     -1640.9684      385.47838     -371.84332      1.4634664    
  24345000   306.7655      -1644.4262      407.76094     -322.25556      12.039541    
  24350000   306.38836     -1652.2231      412.41185     -326.52578      10.894598    
  24355000   307.06769     -1635.5474      410.675       -309.56198     -1.3347739    
  24360000   311.13008     -1651.9263      421.89371     -302.61296      1.5317309    
  24365000   293.5346      -1633.3702      407.63246     -350.76687      10.725666    
  24370000   304.87668     -1624.0468      394.99828     -320.26907     -4.5688485    
  24375000   299.25202     -1624.7256      426.28715     -306.42503      11.22641     
  24380000   300.60185     -1633.8241      416.76        -321.02709      11.658269    
  24385000   299.24851     -1634.0099      409.35411     -332.65286     -0.81470196   
  24390000   303.30957     -1631.5138      414.49962     -312.90596     -5.977874     
  24395000   311.0388      -1641.5098      406.75883     -307.60335     -10.008057    
  24400000   299.56667     -1639.8579      431.53786     -315.36865      0.89786151   
  24405000   289.50856     -1631.1409      419.8653      -348.30553     -0.59444834   
  24410000   299.30058     -1639.0093      408.70231     -338.14876     -1.8338217    
  24415000   306.15345     -1615.897       403.73514     -299.57659     -6.8410387    
  24420000   297.25478     -1644.7064      417.93571     -340.7107      -1.3294685    
  24425000   318.13816     -1629.112       421.07896     -259.72366     -15.679381    
  24430000   313.13642     -1634.6872      404.45381     -296.8332       20.39702     
  24435000   315.8422      -1659.8754      408.39749     -310.01229     -9.6427609    
  24440000   298.93028     -1647.6487      395.89926     -360.69502      27.377683    
  24445000   300.78312     -1650.992       450.4787      -303.93589      9.9157949    
  24450000   295.38495     -1639.7587      398.2552      -361.01711      3.760147     
  24455000   292.22937     -1672.2153      424.49866     -376.63643     -11.439418    
  24460000   306.61209     -1646.4636      398.47336     -334.03783      7.3661631    
  24465000   306.08013     -1634.7903      394.34055     -328.083       -11.27208     
  24470000   306.65865     -1659.1391      420.7666      -324.2813      -12.38377     
  24475000   308.36886     -1675.502       400.2803      -356.03265      12.836005    
  24480000   304.0043      -1657.6386      430.51157     -320.94793      21.410157    
  24485000   296.1901      -1653.4561      410.7962      -359.77346      3.7888732    
  24490000   314.94434     -1646.1734      420.18883     -287.1953      -2.2854908    
  24495000   300.58436     -1630.5769      400.4112      -334.18085     -8.4186818    
  24500000   299.93662     -1658.6456      441.9584      -322.63311     -9.287265     
  24505000   312.07532     -1633.2419      404.40192     -298.60269     -10.711695    
  24510000   309.3451      -1635.7716      387.97212     -325.70049      4.9638892    
  24515000   290.44309     -1625.0073      426.42931     -332.82234      10.823441    
  24520000   299.64002     -1634.3479      420.1904      -320.98755      0.79230079   
  24525000   304.89005     -1633.9874      406.53989     -318.62822      7.5769482    
  24530000   292.30173     -1658.7311      423.39303     -364.0421       4.2013108    
  24535000   309.76993     -1639.5912      382.49482     -333.73105     -1.2857038    
  24540000   303.70138     -1630.1848      425.60136     -299.30728     -16.186904    
  24545000   300.95402     -1620.5385      435.56365     -287.88805      2.4598031    
  24550000   302.03778     -1623.78        409.48849     -313.97425     -8.2321755    
  24555000   305.32623     -1629.6502      396.78269     -322.74806      7.1178045    
  24560000   304.60082     -1626.8127      418.14558     -300.70997     -17.347508    
  24565000   298.22243     -1610.9742      421.23657     -300.79318     -7.7142778    
  24570000   294.66854     -1632.9609      436.49728     -318.11264      5.39859      
  24575000   308.84064     -1635.5074      410.8577      -304.05439      25.656931    
  24580000   300.52751     -1638.1742      420.02875     -322.32999     -20.27611     
  24585000   301.42398     -1629.8098      401.34576     -329.97646     -11.441457    
  24590000   284.36558     -1619.6629      381.27713     -390.74603      0.6147432    
  24595000   318.98222     -1624.7178      421.97426     -251.91817      15.642295    
  24600000   296.45371     -1628.3996      453.25052     -291.47687      6.7294823    
  24605000   290.1892      -1615.2021      400.32444     -349.87874      6.0816462    
  24610000   300.92479     -1606.6193      417.34663     -292.27303     -11.154396    
  24615000   300.36078     -1616.5092      404.32074     -316.87003      18.868131    
  24620000   298.11667     -1609.9312      402.39873     -318.90331      5.825981     
  24625000   296.54957     -1634.4027      407.3571      -343.0877       10.904905    
  24630000   292.71762     -1628.638       396.02004     -360.08231      0.76068092   
  24635000   313.50253     -1645.854       391.94463     -319.41792     -19.114313    
  24640000   302.4311      -1642.8148      426.7773      -314.54782      10.514499    
  24645000   303.66243     -1645.148       405.72979     -334.25815      12.036639    
  24650000   312.09864     -1648.0756      415.24494     -302.52395      2.8187209    
  24655000   301.58642     -1661.8062      422.17601     -340.65841     -17.239758    
  24660000   291.95503     -1669.3581      440.90239     -358.1932      -7.9976389    
  24665000   290.9864      -1648.8002      417.89246     -363.53256     -4.6447129    
  24670000   304.73972     -1660.9381      436.28479     -316.28213      10.613253    
  24675000   313.34621     -1670.6044      401.46108     -335.11781      15.93393     
  24680000   299.61771     -1624.2591      386.54023     -344.61539     -8.1247699    
  24685000   296.88808     -1636.8961      401.94639     -349.98273     -0.81332169   
  24690000   312.86952     -1644.5218      411.10376     -300.81346     -13.728803    
  24695000   306.63049     -1643.3506      421.28806     -308.05529      14.432906    
  24700000   288.08836     -1652.3682      412.21323     -381.41831      1.3555115    
  24705000   300.70064     -1648.6096      395.50029     -356.7778      -25.489754    
  24710000   304.91534     -1645.3693      419.0845      -317.39013      3.3424783    
  24715000   317.84563     -1642.5665      422.83426     -272.29476     -5.7542037    
  24720000   301.17563     -1624.7899      418.9347      -308.10784     -9.0353386    
  24725000   309.15203     -1638.7787      398.6464      -318.60879     -25.750534    
  24730000   301.73695     -1654.1614      429.91901     -324.82182      2.3903981    
  24735000   311.49936     -1664.6097      398.2109      -337.87842      1.4427339    
  24740000   295.30394     -1643.937       400.01822     -363.67385     -6.9649188    
  24745000   291.61823     -1631.7208      403.84457     -358.61772     -16.35251     
  24750000   296.78375     -1641.8602      419.5579      -337.64633     -9.9068625    
  24755000   308.88608     -1655.8546      393.10079     -342.02305      7.2324676    
  24760000   297.49109     -1644.4965      404.55111     -353.18095      4.4547413    
  24765000   309.60758     -1644.9907      416.26707     -305.84221      4.5006707    
  24770000   294.55389     -1652.2677      397.92043     -376.33809     -2.8615539    
  24775000   308.18633     -1665.8565      405.95203     -341.25955     -24.290366    
  24780000   306.67979     -1661.5048      391.28425     -356.06638     -5.5964848    
  24785000   284.67891     -1650.3975      447.82727     -353.99642      29.414862    
  24790000   299.91731     -1650.7917      408.08553     -348.70959      9.2804376    
  24795000   298.42765     -1632.9453      415.31373     -328.07546      9.3232236    
  24800000   286.09009     -1666.0919      421.75482     -391.55687      8.2196267    
  24805000   308.90227     -1650.5732      432.85065     -296.94358      5.7750814    
  24810000   306.35319     -1635.0013      410.97351     -310.84711      2.8310563    
  24815000   306.59988     -1644.6853      390.97215     -339.79717      8.8023496    
  24820000   308.29319     -1636.7463      396.87481     -320.90802      7.73845      
  24825000   299.39267     -1654.7014      395.77601     -366.49274      7.2250113    
  24830000   301.77306     -1635.7156      430.65229     -305.53515      1.4443744    
  24835000   293.45002     -1645.4515      386.96048     -383.77231     -22.694916    
  24840000   293.70506     -1627.895       417.17568     -335.24028      24.791262    
  24845000   303.76154     -1624.9651      415.71265     -303.797        0.83940455   
  24850000   289.84364     -1649.0728      386.82976     -398.27422      2.3047884    
  24855000   289.85787     -1639.4068      419.1654      -356.23019      15.856269    
  24860000   306.08085     -1632.9529      404.71702     -315.86696      9.6296411    
  24865000   286.14867     -1636.6341      403.71221     -379.96708      0.88524587   
  24870000   308.13135     -1646.0805      423.70292     -303.89656      11.656632    
  24875000   303.85277     -1623.1071      406.56466     -310.81508      2.068428     
  24880000   305.24022     -1620.794       392.30751     -318.62339     -10.274306    
  24885000   310.87639     -1640.894       435.42886     -278.80171     -11.213131    
  24890000   300.47203     -1608.7402      399.50027     -313.58994      22.015563    
  24895000   299.76306     -1639.2315      418.25233     -327.44245     -1.9077626    
  24900000   297.89528     -1619.6213      389.6222      -342.02989      3.3727434    
  24905000   294.06102     -1630.7739      400.05676     -354.17705      7.8120248    
  24910000   302.54344     -1633.7054      428.10978     -303.77106      10.246547    
  24915000   298.92345     -1623.101       399.5849      -332.48207      24.193931    
  24920000   287.75882     -1627.7699      417.51277     -352.5028      -2.8020739    
  24925000   301.15386     -1618.3375      383.43961     -337.21545      8.3901177    
  24930000   304.80626     -1647.5636      428.26493     -310.72904      2.7934544    
  24935000   303.44693     -1645.6925      430.94681     -310.22804      6.7150228    
  24940000   302.45954     -1629.2414      403.66604     -324.00096     -1.6788373    
  24945000   307.32045     -1596.1961      412.28397     -267.84828      16.86145     
  24950000   300.1689      -1590.0747      425.49327     -269.83492      4.6920232    
  24955000   308.31901     -1625.4664      433.68464     -272.74136      3.6148687    
  24960000   289.26397     -1597.8435      422.3582      -313.24432     -7.628492     
  24965000   308.48743     -1615.9386      394.19206     -302.20408      17.524743    
  24970000   297.53459     -1620.5977      403.95412     -329.74948     -11.810467    
  24975000   300.12872     -1622.6329      408.86235     -319.14383      12.750487    
  24980000   296.11026     -1619.5856      414.20435     -322.73284      2.9111769    
  24985000   300.21073     -1626.727       425.70263     -306.15322     -4.1879891    
  24990000   302.42798     -1642.2938      415.03323     -325.78023      1.6900841    
  24995000   294.12774     -1631.2556      420.77064     -333.74602     -16.619306    
  25000000   306.83125     -1614.8673      412.66871     -287.59291      8.6559825    
  25005000   297.91414     -1626.7173      403.29729     -335.39453      16.695661    
  25010000   298.97018     -1606.4138      428.31387     -286.92659     -6.7094816    
Loop time of 9413.76 on 18 procs for 25000000 steps with 1001 atoms

Performance: 6883.543 ns/day, 0.003 hours/ns, 2655.688 timesteps/s
99.6% CPU use with 18 MPI tasks x 1 OpenMP threads

MPI task timing breakdown:
Section |  min time  |  avg time  |  max time  |%varavg| %total
---------------------------------------------------------------
Pair    | 15.94      | 619.29     | 3313.2     |3845.8 |  6.58
Bond    | 12.148     | 93.848     | 402.48     |1187.5 |  1.00
Neigh   | 2372.5     | 2401       | 2444.9     |  55.0 | 25.51
Comm    | 2776.6     | 6058.4     | 6827       |1519.3 | 64.36
Output  | 2.319      | 2.4706     | 2.5696     |   4.3 |  0.03
Modify  | 19.711     | 106.38     | 440.55     |1202.4 |  1.13
Other   |            | 132.4      |            |       |  1.41

Nlocal:        55.6111 ave         243 max           2 min
Histogram: 8 1 7 0 0 0 0 0 0 2
Nghost:        1650.67 ave        1948 max        1045 min
Histogram: 2 0 0 0 0 8 0 0 0 8
Neighs:        822.611 ave        4086 max           6 min
Histogram: 8 3 5 0 0 0 0 0 0 2
FullNghs:      1665.67 ave        9672 max           0 min
Histogram: 8 7 1 0 0 0 0 0 1 1

Total # of neighbors = 30077
Ave neighs/atom = 30.046953
Ave special neighs/atom = 3.5964036
Neighbor list builds = 2500000
Dangerous builds = 2500000
Total wall time: 2:36:55
