LAMMPS (23 Jun 2022)
OMP_NUM_THREADS environment is not set. Defaulting to 1 thread. (src/src/comm.cpp:98)
  using 1 OpenMP thread(s) per MPI task
Created orthogonal box = (0 0 0) to (150 150 150)
  2 by 3 by 3 MPI processor grid
Read molecule template lig:
  1 molecules
  0 fragments
  5 atoms with max type 2
  4 bonds with max type 1
  3 angles with max type 1
  0 dihedrals with max type 0
  0 impropers with max type 0
Created 1 atoms
  using box units in orthogonal box = (0 0 0) to (150 150 150)
  create_atoms CPU = 0.002 seconds
Created 3000 atoms
  using lattice units in orthogonal box = (0 0 0) to (150 150 150)
  create_atoms CPU = 0.005 seconds
Finding 1-2 1-3 1-4 neighbors ...
  special bond factors lj:    0        1        1       
  special bond factors coul:  0        0        0       
     2 = max # of 1-2 neighbors
     2 = max # of 1-3 neighbors
     2 = max # of 1-4 neighbors
     7 = max # of special neighbors
  special bonds CPU = 0.001 seconds
3000 atoms in group ligands
Generated 0 of 6 mixed pair_coeff terms from geometric mixing rule
Neighbor list info ...
  update every 1 steps, delay 10 steps, check yes
  max neighbors/atom: 2000, page size: 100000
  master list distance cutoff = 60
  ghost atom cutoff = 60
  binsize = 30, bins = 5 5 5
  1 neighbor lists, perpetual/occasional/extra = 1 0 0
  (1) pair lj/expand, perpetual
      attributes: half, newton on
      pair build: half/bin/newton
      stencil: half/bin/3d
      bin: standard
Setting up Verlet run ...
  Unit style    : real
  Current step  : 0
  Time step     : 30
Per MPI rank memory allocation (min/avg/max) = 8.329 | 8.352 | 8.375 Mbytes
   Step          Temp          E_pair         E_mol          TotEng         Press     
         0   0              1.9437379e+13  3.7351619e-25  1.9437379e+13  1.5796035e+12
      5000   145.89235     -1562.2116      615.59744      358.01797     -3.6797022    
     10000   141.59041     -1970.8769      622.10302     -82.611606     -4.2732379    
Loop time of 5.35399 on 18 procs for 10000 steps with 3001 atoms

Performance: 4841.252 ns/day, 0.005 hours/ns, 1867.767 timesteps/s
99.6% CPU use with 18 MPI tasks x 1 OpenMP threads

MPI task timing breakdown:
Section |  min time  |  avg time  |  max time  |%varavg| %total
---------------------------------------------------------------
Pair    | 0.22838    | 0.54276    | 1.1708     |  27.8 | 10.14
Bond    | 0.071654   | 0.11047    | 0.16884    |   5.8 |  2.06
Neigh   | 2.025      | 2.0297     | 2.0358     |   0.2 | 37.91
Comm    | 1.7207     | 2.4667     | 2.8626     |  15.5 | 46.07
Output  | 0.0015123  | 0.0015281  | 0.0015578  |   0.0 |  0.03
Modify  | 0.08846    | 0.1333     | 0.20048    |   6.3 |  2.49
Other   |            | 0.06951    |            |       |  1.30

Nlocal:        166.722 ave         306 max          88 min
Histogram: 1 3 4 4 2 3 0 0 0 1
Nghost:        4723.83 ave        4934 max        4438 min
Histogram: 1 0 2 1 1 3 5 3 0 2
Neighs:        2265.44 ave        6060 max         647 min
Histogram: 1 5 5 4 2 0 0 0 0 1

Total # of neighbors = 40778
Ave neighs/atom = 13.588137
Ave special neighs/atom = 3.5988004
Neighbor list builds = 909
Dangerous builds = 0
1 atoms in group nps
600 atoms in group amines
Generated 0 of 6 mixed pair_coeff terms from geometric mixing rule
Neighbor list info ...
  update every 1 steps, delay 10 steps, check yes
  max neighbors/atom: 2000, page size: 100000
  master list distance cutoff = 60
  ghost atom cutoff = 60
  binsize = 30, bins = 5 5 5
  3 neighbor lists, perpetual/occasional/extra = 1 2 0
  (1) pair lj/expand, perpetual
      attributes: half, newton on
      pair build: half/bin/newton
      stencil: half/bin/3d
      bin: standard
  (2) compute coord/atom, occasional
      attributes: full, newton on
      pair build: full/bin
      stencil: full/bin/3d
      bin: standard
  (3) compute coord/atom, occasional
      attributes: full, newton on
      pair build: full/bin
      stencil: full/bin/3d
      bin: standard
Setting up Verlet run ...
  Unit style    : real
  Current step  : 10000
  Time step     : 30
Per MPI rank memory allocation (min/avg/max) = 10.35 | 10.5 | 12.35 Mbytes
   Step          Temp          E_pair         E_mol          TotEng         Press     
     10000   141.59041     -1970.8769      622.10302     -82.611606     -4.2732379    
     15000   296.45691     -1220.2571      1321.2708      2752.0589      7.7253586    
     20000   301.25539     -1235.7219      1277.7184      2735.9518      5.2167583    
     25000   296.77991     -1409.5435      1266.9696      2511.3597     -6.2325686    
     30000   299.22799     -1671.0439      1263.6875      2268.4689      14.759174    
     35000   302.86399     -1871.0791      1312.1256      2149.3866     -10.104189    
     40000   296.93117     -1952.529       1286.203       1988.9602     -0.85274594   
     45000   307.9507      -2058.153       1316.1925      2011.8671     -2.2234911    
     50000   304.52049     -2180.4756      1296.7843      1839.4619      3.349566     
     55000   294.11933     -2298.7498      1246.5869      1577.9787      6.070218     
     60000   304.49593     -2439.7313      1291.0605      1574.2628     -2.2063084    
     65000   293.78712     -2628.8069      1299.2647      1297.6286      20.40107     
     70000   299.36505     -2826.3685      1252.697       1103.3796     -13.483729    
     75000   299.6771      -2950.779       1283.5047      1012.5672      11.327434    
     80000   306.67409     -2971.7369      1269.7248      1040.3996      31.065158    
     85000   301.26179     -3141.6624      1249.8946      802.24474     -3.8761152    
     90000   306.68667     -3220.1834      1284.1142      806.4549       9.8895826    
     95000   307.01325     -3344.5246      1267.4641      668.38403      13.363564    
    100000   293.26215     -3518.2339      1223.8319      328.07436      1.0397244    
    105000   301.8245      -3489.8677      1228.8224      437.99918      15.093791    
    110000   300.08554     -3595.2241      1220.2361      308.50598     -18.011567    
    115000   299.52292     -3615.5018      1273.5432      336.50419     -21.956902    
    120000   296.32113     -3706.542       1213.4332      156.72231      13.890858    
    125000   293.85901     -3776.1163      1249.8558      101.55319      7.7941447    
    130000   307.08879     -3766.3744      1196.392       176.13766     -13.831141    
    135000   303.9897      -3843.3781      1197.2983      72.326842      16.386106    
    140000   297.65958     -3905.2562      1258.719       15.262758     -7.4697258    
    145000   301.14805     -3893.2451      1228.4904      28.240745      50.049622    
    150000   305.19765     -3953.946       1198.2245     -26.512883      7.988712     
    155000   294.66425     -3970.5719      1230.1141     -105.44326      4.7817186    
    160000   288.67909     -4038.055       1279.4329     -177.12951     -4.8779203    
    165000   297.61873     -4049.5272      1237.048      -151.04448      1.8312246    
    170000   296.17514     -4123.9039      1211.6985     -263.67989      18.621854    
    175000   300.49284     -4207.5725      1196.0816     -324.35469      8.274703     
    180000   297.38669     -4131.42        1239.5055     -232.55483     -3.4075823    
    185000   295.73041     -4185.2103      1177.4858     -363.17594      20.749004    
    190000   300.50758     -4165.4113      1186.2963     -291.84707      15.529005    
    195000   294.89802     -4213.3012      1226.3689     -349.82737     -16.975656    
    200000   294.53905     -4253.5976      1222.3738     -397.32883     -26.856663    
    205000   303.11749     -4184.779       1229.0105     -245.16147     -5.1239148    
    210000   301.47291     -4204.982       1189.9289     -319.15277     -25.966524    
    215000   307.81447     -4239.535       1214.3945     -272.53114      7.707209     
    220000   293.95868     -4248.8339      1215.1844     -404.94447     -20.665762    
    225000   298.0682      -4204.7868      1277.1319     -262.20081      11.990805    
    230000   302.89501     -4208.1661      1216.386      -283.16264      10.730193    
    235000   308.24681     -4273.8686      1224.6282     -292.76481     -8.2439891    
    240000   299.97404     -4240.5777      1203.4784     -354.60246     -3.9033018    
    245000   307.51241     -4236.2678      1246.8705     -239.48901     -20.201065    
    250000   296.5576      -4288.5813      1161.6155     -475.02015      18.420199    
    255000   300.07992     -4299.6136      1196.9372     -419.2327       21.246956    
    260000   303.15602     -4328.3817      1234.0819     -383.34832      19.632598    
    265000   304.14948     -4235.6363      1239.592      -276.20877      5.0889182    
    270000   297.61957     -4209.3631      1199.241      -348.67995      4.9297936    
    275000   303.99246     -4170.0505      1228.2531     -223.36602      0.053324318  
    280000   297.55425     -4167.1724      1190.9204     -315.3939       1.2213787    
    285000   301.86712     -4227.28        1211.4085     -316.44592     -30.178549    
    290000   298.53819     -4246.1884      1240.8255     -335.70602     -9.2992056    
    295000   298.56015     -4222.6114      1213.0146     -339.7435      -6.2933313    
    300000   307.13663     -4234.8208      1198.9814     -289.29157     -6.0794515    
    305000   299.55957     -4230.3349      1211.64       -339.90436      16.004438    
    310000   299.17746     -4248.0281      1226.0363     -346.61829      0.50483669   
    315000   299.78589     -4239.7352      1221.2337     -337.68711     -22.025601    
    320000   302.66803     -4238.9672      1231.4867     -300.89273      11.266149    
    325000   299.37333     -4266.7909      1251.8484     -337.81737      13.852841    
    330000   302.35201     -4267.7784      1220.2304     -343.7863       20.35153     
    335000   295.94329     -4198.1991      1226.762      -324.98483     -13.963431    
    340000   303.07419     -4221.2402      1174.1012     -336.91922      13.420589    
    345000   293.15249     -4204.6107      1242.0898     -341.02531     -17.333793    
    350000   302.96947     -4225.7876      1206.7334     -309.7709      -9.145383     
    355000   308.02911     -4245.4414      1232.1996     -258.71296      1.6666537    
    360000   302.90195     -4207.8817      1242.0613     -257.1409       26.77318     
    365000   299.931       -4224.2574      1213.66       -328.48542     -14.036867    
    370000   296.8631      -4182.5626      1253.6906     -274.1944      -18.758471    
    375000   298.95723     -4240.7836      1186.4141     -380.96536      23.167527    
    380000   303.48148     -4237.4292      1209.6387     -313.92861      24.350997    
    385000   287.83866     -4219.6906      1214.0144     -431.69912      8.465955     
    390000   297.42404     -4222.6179      1246.3045     -316.61978     -4.6358838    
    395000   297.06624     -4279.8532      1222.6028     -400.75635     -20.94922     
    400000   295.46013     -4226.3702      1215.8698     -368.36877      3.2874194    
    405000   300.00318     -4182.6128      1224.198      -275.65731      14.805258    
    410000   299.9422      -4143.3275      1194.3895     -266.72583     -4.2661349    
    415000   291.4949      -4191.7291      1240.9142     -344.14207      13.790755    
    420000   301.85866     -4168.1426      1287.2805     -181.51205     -9.163998     
    425000   304.83353     -4179.4791      1225.1969     -228.32961      2.9389401    
    430000   294.0444      -4181.3551      1207.4712     -344.41246     -6.7355894    
    435000   294.99419     -4142.7438      1210.2929     -294.48605     -14.108021    
    440000   302.3956      -4152.8391      1193.0817     -255.60589     -6.3511104    
    445000   299.94051     -4226.033       1235.6647     -308.17119      3.5758527    
    450000   302.70905     -4159.3904      1208.0278     -244.40802      25.433503    
    455000   296.40103     -4202.9487      1242.94       -309.46321      8.6855553    
    460000   307.71497     -4115.3982      1234.8715     -128.80709     -5.0171567    
    465000   298.9819      -4143.5824      1215.0831     -254.87461      5.4017568    
    470000   300.81635     -4165.7454      1232.1814     -243.53483     -31.065781    
    475000   294.64176     -4191.2794      1205.6442     -350.82187      3.7772651    
    480000   296.58152     -4163.6525      1259.3252     -252.16786     -20.020331    
    485000   297.18104     -4234.0536      1247.52       -329.01298     -0.49943412   
    490000   306.86326     -4239.3042      1210.4339     -284.76696     -4.6546697    
    495000   306.16889     -4245.0121      1224.0247     -283.09349     -14.778399    
    500000   307.21812     -4291.7193      1226.2928     -318.14992     -15.548384    
    505000   303.38441     -4238.0891      1264.7786     -260.31666     -4.1728925    
    510000   306.66144     -4291.4055      1246.904      -302.20303     -3.4838758    
    515000   306.32834     -4305.8772      1245.46       -321.09747     -8.8839725    
    520000   297.60028     -4310.9793      1223.2448     -426.46479      8.52191      
    525000   293.82295     -4279.8684      1239.6397     -412.73752      3.1323235    
    530000   311.56129     -4233.8817      1202.3696     -245.39703      12.999624    
    535000   297.53591     -4171.5885      1283.4586     -227.43579     -27.856714    
    540000   300.76684     -4151.5842      1234.4435     -227.55427      16.151791    
    545000   293.18353     -4213.8009      1233.3702     -358.65747      6.0779785    
    550000   299.96543     -4225.4771      1234.1        -308.95718      12.363234    
    555000   302.80968     -4184.3334      1205.6467     -270.8323      -3.14574      
    560000   295.979       -4186.8618      1268.4537     -271.63654      0.44269003   
    565000   295.82971     -4129.0507      1198.118      -285.49618     -3.9265771    
    570000   303.94062     -4147.6273      1189.3077     -240.35179      11.937304    
    575000   292.51614     -4171.4463      1217.4837     -338.15739      5.2587465    
    580000   298.35418     -4168.9383      1253.1231     -247.80375      21.647895    
    585000   294.28499     -4217.2932      1232.4576     -353.2126       5.7055129    
    590000   300.75463     -4176.0393      1239.9779     -246.58416      4.4635848    
    595000   292.61413     -4129.908       1272.2782     -240.94843      15.931275    
    600000   307.12745     -4110.2887      1187.9285     -175.89445      10.137685    
    605000   300.44518     -4199.6618      1179.9876     -332.96417     -8.7587722    
    610000   296.16205     -4200.3406      1183.9818     -367.9503       27.785496    
    615000   301.80734     -4293.7403      1215.9197     -378.92949     -13.559296    
    620000   295.26036     -4210.4499      1195.87       -374.23482      20.606343    
    625000   298.81311     -4254.6591      1240.7371     -341.80667      10.285005    
    630000   301.15295     -4185.165       1198.3326     -293.79317     -16.263667    
    635000   297.25054     -4188.4169      1192.5653     -337.70932     -0.8955081    
    640000   302.10156     -4215.6076      1230.4069     -283.6785       8.7155899    
    645000   292.13554     -4261.3737      1226.5417     -422.43036     -6.8361283    
    650000   302.83365     -4259.8125      1201.9709     -349.77284     -7.6928033    
    655000   297.32318     -4205.1044      1202.2567     -344.05588      8.3063746    
    660000   300.22981     -4154.4865      1235.5318     -234.17056      2.6238679    
    665000   300.48773     -4123.4857      1224.5553     -211.83985     -5.2234691    
    670000   298.67658     -4183.146       1195.939      -316.31255      2.4148597    
    675000   303.1661      -4268.6861      1237.4305     -320.21391      8.2418974    
    680000   288.03057     -4253.5457      1278.1727     -399.67967      21.587901    
    685000   298.66373     -4313.1276      1236.8091     -405.53895     -8.0560604    
    690000   301.09419     -4266.5772      1190.4657     -383.59768     -7.8104083    
    695000   301.01476     -4233.5165      1221.9374     -319.77566     -6.4371382    
    700000   306.07566     -4240.4408      1204.7695     -298.61106      24.559514    
    705000   306.97342     -4196.0362      1217.3815     -233.56635      15.695167    
    710000   307.02082     -4228.6891      1222.0368     -261.14002     -18.51142     
    715000   301.72717     -4248.8374      1244.1813     -306.48189      19.65877     
    720000   306.87736     -4276.2078      1263.6715     -268.30696     -4.0632071    
    725000   298.54711     -4257.7433      1171.5744     -416.43229      3.2711615    
    730000   307.75031     -4213.5639      1227.3407     -234.18757     -10.894873    
    735000   295.1478      -4278.084       1221.1041     -417.64128     -9.7480022    
    740000   308.99446     -4234.9517      1236.6426     -235.14772      8.3904596    
    745000   296.5293      -4232.9173      1212.4072     -368.81762     -9.8480119    
    750000   298.64226     -4163.9994      1210.2081     -283.20371      13.852031    
    755000   297.63431     -4273.6376      1204.2342     -407.82939     -20.841509    
    760000   305.88332     -4283.6644      1253.8886     -294.43563      23.027709    
    765000   302.78334     -4278.4448      1242.0304     -328.79548     -9.1269624    
    770000   294.60704     -4276.7429      1189.5947     -452.64528      25.494325    
    775000   300.85501     -4221.289       1217.8831     -313.03104      6.4503236    
    780000   300.89199     -4254.2683      1234.8127     -328.74999     -0.91389411   
    785000   293.49731     -4173.9168      1223.3651     -325.9725      -22.2573      
    790000   303.85006     -4229.8221      1260.2862     -252.37791      4.862184     
    795000   305.22814     -4252.1773      1242.3286     -280.36734      23.387659    
    800000   303.08318     -4238.4725      1210.8117     -317.36063      22.121104    
    805000   287.28679     -4179.5417      1278.0705     -332.42919     -16.175258    
    810000   301.95947     -4176.3875      1195.7696     -280.36641     -30.599036    
    815000   300.54769     -4141.0804      1263.3179     -190.13578      6.8511412    
    820000   301.91288     -4181.1522      1216.3834     -264.93389     -1.8679582    
    825000   302.57038     -4166.8288      1209.9517     -251.16265     -3.8631908    
    830000   299.27485     -4145.0291      1217.3631     -251.42152      18.522227    
    835000   293.04762     -4152.5871      1190.0243     -342.00495     -0.55913932   
    840000   302.38241     -4122.3467      1238.4548     -179.85834      2.2373251    
    845000   298.68334     -4056.6949      1220.3968     -165.34312      3.8578358    
    850000   293.33908     -4057.7538      1233.0076     -201.5819       15.80804     
    855000   303.09774     -4111.4743      1261.954      -139.08984     -7.6495828    
    860000   299.14355     -4112.9784      1270.0693     -167.83884     -0.47276425   
    865000   292.22518     -4151.2002      1266.0118     -271.9852       5.036062     
    870000   295.86053     -4226.6066      1229.664      -351.23042     -1.877466     
    875000   305.24862     -4228.7686      1241.6944     -257.40975      13.525413    
    880000   297.68799     -4264.7725      1219.7275     -382.99089     -8.4251962    
    885000   295.25824     -4230.7898      1216.7242     -373.73945      35.593587    
    890000   294.71262     -4199.2833      1266.8548     -296.98142     -4.0629185    
    895000   299.31428     -4209.4638      1261.0167     -271.85004      2.2285945    
    900000   301.17865     -4213.2191      1189.6121     -330.33792      13.340767    
    905000   304.41058     -4217.5809      1212.8513     -282.55922     -5.7302832    
    910000   294.51039     -4248.37        1211.444      -403.28736      5.2339404    
    915000   295.94609     -4246.1658      1226.364      -373.32459     -7.2191457    
    920000   306.11758     -4187.6272      1173.0388     -277.15323      23.926401    
    925000   292.0409      -4181.6047      1203.2509     -366.79855     -11.50163     
    930000   298.12101     -4210.545       1262.5821     -282.03657      22.598342    
    935000   294.8676      -4098.7891      1225.0404     -236.91576     -4.6722712    
    940000   294.47929     -4161.4535      1218.0268     -310.06622      9.488839     
    945000   301.94227     -4163.0762      1273.1671     -189.81143      15.971533    
    950000   310.66009     -4153.8116      1232.0378     -143.71759     -1.2897056    
    955000   299.04778     -4089.3056      1203.0225     -212.06917     -0.025649428  
    960000   306.8084      -4127.175       1255.7858     -127.77654      14.067993    
    965000   304.04713     -4165.3909      1206.4445     -240.02612      0.72590395   
    970000   302.08163     -4140.9788      1196.5782     -243.05673      4.1634263    
    975000   298.17949     -4130.566       1234.3497     -229.7671       15.946684    
    980000   300.67974     -4199.5877      1178.5163     -332.26378      26.840051    
    985000   300.13056     -4188.8892      1238.2667     -266.72588      3.757799     
    990000   310.48723     -4127.4522      1189.1745     -161.76732     -23.298509    
    995000   301.1791      -4191.7429      1221.4859     -276.98392     -7.6998862    
   1000000   302.45711     -4168.0344      1244.6306     -218.70225      3.7099152    
   1005000   297.94426     -4180.811       1197.7103     -318.75496      28.10412     
   1010000   295.82543     -4179.106       1214.9085     -318.79925      5.205284     
   1015000   290.56351     -4197.8187      1171.6674     -427.80747     -8.9815429    
   1020000   299.55676     -4200.709       1227.6747     -294.26886     -11.514255    
   1025000   293.07129     -4215.5395      1191.3427     -403.42728     -2.8301967    
   1030000   302.38346     -4179.4153      1238.8743     -236.49793     -19.263899    
   1035000   301.47072     -4243.704       1245.5393     -302.28386     -8.4864354    
   1040000   301.99704     -4240.0688      1261.2762     -278.20518      2.3933428    
   1045000   306.7242      -4235.8634      1228.8858     -264.11779      5.2016619    
   1050000   294.52352     -4252.1034      1170.9856     -447.36169     -1.9952737    
   1055000   303.45021     -4246.4852      1188.1736     -344.72926      18.58906     
   1060000   302.404       -4225.3308      1233.5721     -287.53204      8.1361027    
   1065000   309.20983     -4307.9118      1222.3776     -320.44697     -19.00034     
   1070000   304.02529     -4272.3403      1161.7331     -391.88234      25.675494    
   1075000   299.43811     -4307.7799      1220.2417     -409.83381     -9.8287748    
   1080000   290.86245     -4323.4555      1225.3574     -497.08097     -14.221227    
   1085000   291.31911     -4235.9793      1163.0862     -467.79229      13.538705    
   1090000   301.89144     -4222.1033      1263.3418     -259.11831      3.1564346    
   1095000   295.56211     -4259.0081      1174.2392     -441.72537     -22.692252    
   1100000   296.52369     -4223.3762      1204.7791     -366.95466      32.485793    
   1105000   305.1948      -4245.7126      1194.3603     -322.16906      10.142455    
   1110000   303.91977     -4221.7357      1259.2577     -244.69659      18.570417    
   1115000   298.72016     -4240.7395      1231.5336     -337.92176      0.93363293   
   1120000   297.23889     -4299.1496      1244.5684     -396.54317     -15.135549    
   1125000   307.09739     -4186.3241      1235.7323     -204.39483     -15.743991    
   1130000   303.50499     -4215.6837      1196.0885     -305.52306      8.4835197    
   1135000   298.60747     -4181.2275      1256.8408     -254.1103       6.5213733    
   1140000   306.23226     -4242.846       1216.2607     -288.12474      9.06989      
   1145000   299.04552     -4173.5542      1241.172      -258.18857      10.354677    
   1150000   296.28074     -4202.5911      1162.4081     -390.71316     -2.6488211    
   1155000   302.55943     -4227.9899      1212.3176     -310.05574      23.542867    
   1160000   302.04812     -4272.6299      1200.3322     -371.25351      17.879457    
   1165000   303.96453     -4215.8573      1274.7938     -222.88201     -24.139431    
   1170000   301.44218     -4171.882       1214.1326     -262.12381     -16.005262    
   1175000   299.68979     -4154.0933      1182.2317     -291.90669      9.7885843    
   1180000   301.80071     -4196.229       1171.5816     -325.8156       19.0744      
   1185000   294.60685     -4165.2403      1250.6406     -280.0985       11.877409    
   1190000   307.02881     -4229.6168      1222.9059     -261.12723      13.964596    
   1195000   298.68544     -4258.7098      1273.8943     -313.84182      3.7447242    
   1200000   290.20689     -4286.7688      1238.4755     -453.13842      15.694296    
   1205000   303.22457     -4226.0518      1215.9247     -298.56265      14.34061     
   1210000   306.94066     -4224.869       1267.4061     -212.66752      13.202404    
   1215000   304.27435     -4262.2754      1207.3478     -333.97549      4.5237055    
   1220000   298.55116     -4268.9464      1194.5871     -404.58639      15.135977    
   1225000   300.89076     -4236.3043      1226.3709     -319.23879     -18.205205    
   1230000   303.62935     -4290.6604      1182.8033     -392.67286     -6.6846941    
   1235000   297.50048     -4209.0658      1249.2837     -299.40486      3.3759593    
   1240000   297.90711     -4245.3985      1234.0916     -347.29338      24.910213    
   1245000   301.17546     -4242.6831      1246.3968     -303.04585      11.524485    
   1250000   296.78833     -4297.5659      1188.9879     -454.56917      7.2571523    
   1255000   305.75255     -4224.017       1181.2325     -308.61367      14.229868    
   1260000   302.46637     -4259.7411      1274.9591     -279.99761     -3.0690811    
   1265000   295.06912     -4271.7787      1234.4523     -398.69134     -16.179919    
   1270000   298.77726     -4311.2299      1202.3513     -437.08379     -10.610898    
   1275000   296.80902     -4169.126       1231.1701     -283.762       -6.787231     
   1280000   304.17021     -4227.5067      1200.7616     -306.72426      26.480765    
   1285000   296.04807     -4238.4156      1236.033      -354.99343      3.0464872    
   1290000   296.81075     -4229.061       1216.893      -357.95854     -17.663014    
   1295000   294.02718     -4183.982       1233.6804     -320.98409      4.0212497    
   1300000   306.99423     -4223.7353      1282.8445     -195.61636      9.4472199    
   1305000   303.74009     -4259.6225      1230.8632     -312.5848      -0.85675254   
   1310000   303.28924     -4240.9128      1220.4451     -308.3249       7.4933216    
   1315000   297.62508     -4217.6891      1208.8225     -347.37516      4.6780627    
   1320000   297.73473     -4272.9613      1226.0994     -384.38983     -3.0034194    
   1325000   302.83701     -4238.2845      1212.5566     -317.62907      6.2089748    
   1330000   296.25601     -4277.0109      1217.1522     -410.61007     -10.063077    
   1335000   295.70681     -4279.0049      1233.2525     -401.41496      8.9321395    
   1340000   299.35137     -4215.621       1266.7879     -271.9044      -6.2949319    
   1345000   296.49908     -4235.5747      1213.6092     -370.54315     -2.5844537    
   1350000   298.00788     -4134.6686      1268.5992     -201.15474      13.6824      
   1355000   301.27595     -4198.5013      1226.5657     -277.79641      0.2043245    
   1360000   305.79625     -4203.0856      1195.7015     -272.82256      10.319201    
   1365000   296.70207     -4192.2052      1223.7098     -315.25779      5.3402183    
   1370000   297.62928     -4257.2474      1227.8833     -367.83515      15.558734    
   1375000   293.19492     -4201.7399      1177.9497     -401.91508      2.5036431    
   1380000   299.9982      -4200.4498      1247.2278     -270.50902      14.640911    
   1385000   299.22941     -4249.0355      1191.1213     -382.07609      16.04911     
   1390000   294.89794     -4305.6977      1183.4995     -485.09391      7.6373652    
   1395000   305.34559     -4304.1038      1228.7043     -344.86789      3.0579384    
   1400000   295.80315     -4350.1177      1220.6831     -484.23564     -11.916514    
   1405000   303.94844     -4277.5496      1261.2231     -298.28878      3.5195059    
   1410000   302.3094      -4229.1788      1208.2478     -317.55031     -11.923941    
   1415000   311.07976     -4305.9949      1185.4922     -338.69375      5.4490445    
   1420000   299.84397     -4193.793       1224.4786     -287.98065     -10.502814    
   1425000   298.38744     -4310.2645      1215.2573     -426.69831     -0.15369064   
   1430000   298.90667     -4222.68        1218.9397     -330.78827     -19.609328    
   1435000   304.12613     -4233.6629      1231.503      -282.53318      17.947013    
   1440000   306.76941     -4214.9282      1219.281      -252.38326     -5.9642734    
   1445000   300.96502     -4161.0137      1217.1944     -252.46069      18.215699    
   1450000   303.27425     -4202.8585      1201.4876     -289.36216     -3.5491729    
   1455000   301.32547     -4210.5718      1225.5317     -290.45809      14.481823    
   1460000   294.75761     -4265.3266      1232.8565     -396.62071      7.8773515    
   1465000   291.89109     -4248.3751      1182.1537     -456.00579     -12.76143     
   1470000   294.33779     -4259.442       1208.7455     -418.6013      -0.8822007    
   1475000   307.93813     -4269.8162      1241.5778     -274.52324     -11.064758    
   1480000   298.46734     -4306.4757      1224.6832     -412.76927     -30.063721    
   1485000   298.18745     -4203.3014      1212.4986     -324.28239      9.2789026    
   1490000   293.22128     -4310.1054      1212.0315     -475.96311      14.804783    
   1495000   295.72248     -4267.7007      1258.3128     -364.91032      7.1307142    
   1500000   301.55921     -4293.2062      1247.1581     -349.37593      14.320162    
   1505000   299.36221     -4317.7649      1234.5003     -406.23901     -1.0279688    
   1510000   298.49005     -4316.514       1217.8036     -429.48396      10.053821    
   1515000   300.33769     -4304.3262      1253.4831     -365.09441      35.868693    
   1520000   298.70977     -4304.3609      1239.763      -393.40665      11.136845    
   1525000   301.26246     -4304.8217      1228.3751     -382.42802      7.0276108    
   1530000   311.64268     -4268.0775      1253.4999     -227.73471      29.455462    
   1535000   299.87575     -4289.1241      1256.5852     -350.92093     -21.750222    
   1540000   306.69874     -4235.4148      1248.17       -244.61275     -7.5979495    
   1545000   305.64825     -4272.4442      1209.6271     -329.579        9.1896949    
   1550000   295.1219      -4287.1744      1195.358      -452.70948     -18.728652    
   1555000   300.6945      -4223.5126      1227.7681     -306.80499      12.66037     
   1560000   301.05844     -4263.5         1257.7656     -313.54028      14.551093    
   1565000   300.2771      -4249.1525      1280.2468     -283.69865     -1.2818686    
   1570000   298.06557     -4231.3578      1216.8675     -349.0598      -12.894044    
   1575000   306.97918     -4252.0449      1249.0874     -257.81758     -4.3218992    
   1580000   294.68194     -4264.6862      1182.049      -447.46457     -2.9273883    
   1585000   298.14993     -4154.0667      1220.6054     -267.27644     -37.492674    
   1590000   305.79768     -4168.8987      1267.1465     -167.17784      17.340837    
   1595000   305.50393     -4167.9842      1217.775      -218.2617      -27.4321      
   1600000   303.33817     -4257.9963      1197.3013     -348.11459      6.7339116    
   1605000   303.40507     -4253.7575      1241.9588     -298.62008      16.484566    
   1610000   308.99824     -4270.309       1255.0047     -252.1091       5.2139829    
   1615000   301.00018     -4239.1137      1235.5199     -311.92075      22.00278     
   1620000   306.12817     -4253.6565      1210.5811     -305.54562     -7.4032953    
   1625000   304.55344     -4193.4037      1232.2934     -237.6624       5.7635092    
   1630000   307.5462      -4209.082       1202.5107     -256.36089      10.141825    
   1635000   301.83474     -4217.0386      1208.8359     -309.0666       9.9101949    
   1640000   298.42363     -4127.0726      1226.0047     -232.43544      12.482253    
   1645000   291.54648     -4223.7408      1212.9394     -403.66731      9.0299011    
   1650000   296.4177      -4212.3439      1245.6301     -316.01922      15.192948    
   1655000   295.25637     -4245.4608      1241.7125     -363.4388      -14.036773    
   1660000   298.32521     -4174.4381      1186.4218     -320.26389      0.21127938   
   1665000   303.59887     -4203.4005      1259.1606     -229.32827      2.5768357    
   1670000   298.59339     -4165.3456      1204.1322     -291.06285      13.956856    
   1675000   298.44868     -4210.7862      1220.6435     -321.28621     -18.373961    
   1680000   296.94184     -4163.793       1211.5127     -296.89858      1.2305081    
   1685000   298.19588     -4149.7721      1243.8082     -239.36809     -12.718407    
   1690000   300.38701     -4225.579       1208.6212     -330.7679       9.8682588    
   1695000   295.00408     -4224.7485      1227.9903     -358.70487     -1.7344677    
   1700000   303.34285     -4237.1582      1195.5764     -328.95943     -24.62736     
   1705000   293.49751     -4236.3454      1231.0612     -380.70326      34.583242    
   1710000   305.01025     -4258.9658      1175.7525     -355.68057     -7.1329734    
   1715000   293.40023     -4217.9648      1194.7674     -399.48628      1.767581     
   1720000   292.34348     -4237.2993      1248.5524     -374.48579      8.1270342    
   1725000   305.07299     -4199.917       1230.972      -240.85104      6.0697226    
   1730000   302.90067     -4175.2926      1213.6281     -252.99637     -19.636434    
   1735000   293.55701     -4275.5993      1227.511      -422.97528      21.904823    
   1740000   307.56733     -4270.139       1200.1645     -319.57514     -8.624891     
   1745000   297.2123      -4250.8572      1244.8528     -348.20418     -17.166307    
   1750000   303.96844     -4270.7733      1220.4146     -332.14222      2.1297833    
   1755000   306.84861     -4288.1449      1198.2633     -345.90929     -7.8981914    
   1760000   304.08762     -4244.918       1222.4673     -303.16841     -18.276611    
   1765000   298.35855     -4223.7212      1229.9587     -325.71192     -1.6400785    
   1770000   302.37089     -4197.8124      1227.2274     -266.65453      19.963375    
   1775000   297.40822     -4219.7875      1196.7534     -363.48185      5.4804367    
   1780000   294.29515     -4188.903       1211.3553     -345.83386     -1.7896285    
   1785000   299.28006     -4277.3222      1274.453      -326.57824      7.1169558    
   1790000   308.51242     -4242.1267      1265.4653     -217.81071      15.138522    
   1795000   294.46061     -4201.5658      1227.0401     -341.3323      -5.8136714    
   1800000   305.10226     -4212.6861      1224.367      -259.96342     -19.988922    
   1805000   298.94945     -4169.8359      1236.1325     -260.36883     -2.1233769    
   1810000   306.95893     -4208.3286      1234.9001     -228.46975     -5.6284754    
   1815000   302.1855      -4227.2713      1219.1204     -305.87821      23.614968    
   1820000   299.89678     -4229.1314      1209.543      -337.78237      10.674378    
   1825000   298.44483     -4205.9028      1215.5125     -321.56822      39.580968    
   1830000   302.06446     -4277.1443      1205.6155     -370.33843      10.512903    
   1835000   300.87121     -4264.3307      1221.8611     -351.94976      24.308496    
   1840000   298.29691     -4323.8695      1177.4037     -478.96647     -10.431347    
   1845000   300.0471      -4288.6479      1224.9494     -380.54817     -4.0210178    
   1850000   297.13009     -4300.3216      1212.1974     -431.05908     -14.666275    
   1855000   299.67803     -4339.8011      1250.1976     -409.75362     -14.955225    
   1860000   293.92691     -4274.4212      1249.1474     -396.85293     -4.5395473    
   1865000   300.43146     -4247.3327      1224.2533     -336.49206     -0.65628762   
   1870000   302.09215     -4274.1298      1230.5267     -342.16511     -6.1287525    
   1875000   305.95134     -4238.2171      1210.0685     -292.20019      13.431948    
   1880000   301.37916     -4194.2377      1241.5142     -257.66142     -5.3660539    
   1885000   296.69724     -4237.0027      1222.7183     -361.09004     -10.242264    
   1890000   297.65048     -4236.2895      1265.951      -308.61983      4.5235538    
   1895000   305.13788     -4247.5995      1235.6738     -283.25156     -4.6094953    
   1900000   296.77681     -4284.6589      1241.3599     -389.3932       17.173992    
   1905000   304.94521     -4261.4164      1249.7499     -284.71529      9.9815544    
   1910000   297.98762     -4260.3456      1219.4902     -376.12198     -25.90148     
   1915000   296.08261     -4231.7182      1230.1689     -353.85135     -14.763775    
   1920000   297.61774     -4276.3227      1230.573      -384.32387     -3.736478     
   1925000   302.68177     -4285.4581      1212.1673     -366.58017      13.100457    
   1930000   293.36024     -4256.3796      1226.6492     -406.37698     -36.54545     
   1935000   304.35457     -4256.4044      1223.5196     -311.21539      17.016101    
   1940000   306.8979      -4222.6829      1245.4348     -232.83508     -13.186021    
   1945000   305.36266     -4191.7824      1217.9525     -243.1456      -20.060981    
   1950000   304.19705     -4265.5804      1222.3047     -323.01481     -5.3858787    
   1955000   302.18474     -4193.9717      1212.301      -279.40483      18.969442    
   1960000   307.30752     -4136.9265      1203.8185     -185.03203     -9.4019526    
   1965000   302.88715     -4144.6466      1150.0361     -286.06335      9.9291603    
   1970000   308.52161     -4130.9646      1217.2726     -154.75909     -8.8249844    
   1975000   301.87639     -4139.6915      1232.7394     -207.44354      0.83626037   
   1980000   303.55864     -4131.5038      1234.0015     -182.95031     -40.755179    
   1985000   302.85394     -4214.4492      1232.8235     -273.37552     -11.809565    
   1990000   300.10573     -4225.4         1203.9655     -337.76005     -13.618537    
   1995000   298.01631     -4172.9107      1235.863      -272.05764     -12.317291    
   2000000   301.45405     -4189.4484      1242.5791     -251.1376       6.9172634    
   2005000   296.73236     -4178.588       1245.1101     -279.96947      17.0651      
   2010000   301.40748     -4287.8525      1232.4065     -360.13066      6.6141527    
   2015000   309.3796      -4228.2471      1254.7869     -206.85474      26.341626    
   2020000   300.25103     -4178.0993      1200.9889     -292.13654     -16.058361    
   2025000   303.50093     -4198.7231      1135.068      -349.61911      19.03887     
   2030000   298.78422     -4253.8078      1224.1318     -357.81899      2.9577224    
   2035000   291.50051     -4214.6421      1259.8941     -348.02501     -4.8185179    
   2040000   295.83601     -4202.2601      1253.1103     -303.6569      -26.653284    
   2045000   299.7393      -4196.7629      1231.0464     -285.31873      17.788956    
   2050000   300.56671     -4242.3215      1257.1952     -297.32959     -25.305635    
   2055000   292.34974     -4260.1876      1269.5767     -376.29373     -30.382752    
   2060000   304.80157     -4199.7555      1258.0417     -216.04703      10.710492    
   2065000   300.13588     -4217.6161      1221.4151     -312.25686      13.929371    
   2070000   293.42429     -4188.6686      1208.2427     -356.49974      22.691636    
   2075000   302.37458     -4213.1928      1192.6383     -316.59099     -15.330884    
   2080000   297.83778     -4155.7464      1267.0086     -225.3442      -28.094594    
   2085000   297.59428     -4152.4044      1201.1228     -290.06558     -9.7993855    
   2090000   291.53271     -4143.1535      1255.2029     -280.9396       12.239887    
   2095000   302.13822     -4167.8008      1207.3947     -258.55609      5.4470527    
   2100000   293.51701     -4206.6215      1217.9891     -363.87705     -3.4147267    
   2105000   303.36319     -4220.3399      1214.0871     -293.44876      3.971254     
   2110000   299.75559     -4220.7207      1203.8942     -336.28299     -1.5036376    
   2115000   305.40487     -4181.7535      1264.057      -186.63484      9.1248687    
   2120000   291.83399     -4155.5352      1235.0334     -310.79666     -23.091497    
   2125000   299.59655     -4128.6265      1213.5964     -235.90894      4.9583634    
   2130000   293.25139     -4169.2996      1217.1523     -329.76724     -21.87937     
   2135000   298.04982     -4195.025       1166.6748     -363.06045      3.3106689    
   2140000   289.67021     -4243.9603      1259.1793     -394.42544     -16.084187    
   2145000   308.35663     -4203.884       1222.6299     -223.7964      -25.277166    
   2150000   295.80727     -4267.8502      1203.9857     -418.62863      11.98423     
   2155000   301.0158      -4261.9749      1232.6409     -337.52124     -13.525866    
   2160000   301.466       -4217.6607      1298.4417     -223.38041     -15.705731    
   2165000   298.31958     -4210.3377      1211.4875     -331.14824     -11.756711    
   2170000   302.94218     -4177.0609      1171.8566     -296.16501     -10.953691    
   2175000   296.30777     -4171.3604      1202.6859     -318.96303      21.625448    
   2180000   301.29489     -4168.1471      1260.5745     -213.26407     -28.028054    
   2185000   298.40186     -4174.6247      1250.4276     -255.75936      30.337121    
   2190000   298.37621     -4237.3714      1226.1355     -343.02741      0.12368495   
   2195000   300.56993     -4178.2753      1219.7503     -270.69945     -12.924554    
   2200000   294.82093     -4152.994       1248.4081     -268.17036      5.2675338    
   2205000   299.6842      -4220.3239      1217.2253     -323.1936      -3.6231419    
   2210000   293.95456     -4240.7553      1259.4847     -352.60257     -1.9623135    
   2215000   301.53768     -4226.5399      1244.2821     -285.77824     -5.8749173    
   2220000   297.0226      -4257.2566      1219.399      -381.75373      11.677126    
   2225000   306.974       -4233.227       1212.7045     -275.42895     -13.676814    
   2230000   300.60009     -4225.4905      1206.2639     -331.1313       16.816429    
   2235000   306.71482     -4213.1201      1214.0068     -256.3375       2.2550265    
   2240000   296.3568      -4229.7138      1213.6031     -365.96075     -23.634947    
   2245000   300.96705     -4232.029       1217.9033     -322.74881     -7.9429987    
   2250000   300.1918      -4193.245       1277.7614     -231.03946      1.0226132    
   2255000   300.69756     -4216.4854      1256.3309     -271.18757      9.553501     
   2260000   301.10187     -4219.7011      1244.7261     -282.39252     -20.222499    
   2265000   300.44127     -4233.4575      1235.1384     -311.64411      3.9273422    
   2270000   293.3425      -4179.8978      1229.7744     -326.92863      6.0023594    
   2275000   303.2309      -4181.1781      1202.1402     -267.41672     -1.6398822    
   2280000   302.78656     -4233.4634      1262.7246     -263.09108     -16.075181    
   2285000   295.16216     -4226.1143      1189.7686     -396.87868     -0.26394502   
   2290000   299.43852     -4219.0985      1217.8145     -323.57599     -1.3591056    
   2295000   303.71533     -4321.331       1288.3609     -317.01704      22.962216    
   2300000   297.46697     -4262.8706      1203.3051     -399.48793     -17.860021    
   2305000   302.80562     -4279.0696      1278.6807     -292.57074     -4.4303542    
   2310000   292.07973     -4276.8538      1227.0614     -437.88982     -22.110962    
   2315000   290.39109     -4375.0314      1194.0243     -584.20499      1.2350781    
   2320000   296.6958      -4330.6398      1248.4008     -429.05758     -4.4025563    
   2325000   303.30535     -4272.4411      1211.7281     -348.42611     -14.336471    
   2330000   302.5348      -4252.2937      1234.5401     -312.35735      10.557421    
   2335000   302.95898     -4328.7269      1233.211      -386.32639     -7.3885437    
   2340000   299.55846     -4264.186       1245.7569     -339.64853     -2.9880342    
   2345000   298.55482     -4246.8543      1167.749      -409.29964     -37.054482    
   2350000   298.76836     -4223.6291      1149.5915     -402.32239      9.1957116    
   2355000   298.39313     -4309.3273      1278.5349     -362.43272      13.073809    
   2360000   294.34431     -4276.3663      1189.6225     -454.59039     -16.331948    
   2365000   298.87328     -4308.3746      1187.439      -448.28222     -25.187411    
   2370000   297.23939     -4273.2348      1199.4695     -415.72284      3.2457075    
   2375000   301.51772     -4270.3709      1232.4977     -341.57207      8.8313898    
   2380000   295.54061     -4313.0099      1197.772      -472.38663     -0.44669933   
   2385000   297.53839     -4271.5068      1198.9913     -411.79914     -17.222996    
   2390000   296.75296     -4262.7651      1251.4837     -357.5889       6.0613113    
   2395000   299.02317     -4170.7028      1218.5296     -278.17932     -6.9748871    
   2400000   303.40638     -4173.6421      1209.4879     -250.96385     -0.93191538   
   2405000   302.56026     -4143.1671      1173.7325     -263.81064     -7.2760897    
   2410000   293.29933     -4196.0012      1237.815      -335.37746      8.3631163    
   2415000   294.14186     -4218.8592      1226.3361     -362.18007      15.036081    
   2420000   299.79308     -4247.0929      1226.8944     -339.31985      5.1931514    
   2425000   296.67669     -4236.6405      1190.5279     -393.10198     -2.4578983    
   2430000   300.66482     -4276.3215      1184.5885     -403.05891     -17.419603    
   2435000   293.99206     -4189.3787      1279.7853     -280.58992      17.288897    
   2440000   296.33026     -4216.6127      1214.5237     -352.1764      -13.765011    
   2445000   302.82486     -4252.2339      1262.6548     -281.58897      13.175974    
   2450000   299.56836     -4211.1235      1179.2183     -353.03618     -23.682564    
   2455000   302.14183     -4178.3278      1272.3337     -204.11191     -13.961595    
   2460000   300.4096      -4268.0265      1218.1803     -363.45437      9.0455213    
   2465000   300.94869     -4287.5459      1221.3144     -375.01885      11.236636    
   2470000   296.56598     -4260.3037      1206.8299     -401.45318      10.801942    
   2475000   303.98826     -4338.2187      1228.6348     -391.19011     -2.2686533    
   2480000   294.10345     -4209.4958      1237.2596     -342.23666     -3.9923355    
   2485000   306.92311     -4215.4821      1225.2254     -245.61825      28.635119    
   2490000   304.10153     -4196.0134      1216.6697     -259.93709     -10.0236      
   2495000   289.06101     -4204.6281      1253.0232     -366.69695      11.83047     
   2500000   301.14171     -4254.8216      1233.4387     -328.44417      26.678073    
   2505000   299.48332     -4253.3182      1220.0228     -355.18675      12.400335    
   2510000   303.47645     -4238.9693      1215.3052     -309.84721     -5.0789488    
   2515000   303.00973     -4243.6309      1213.6554     -320.33212      7.8805415    
   2520000   300.52982     -4238.3312      1247.818      -303.04626      10.510008    
   2525000   301.57754     -4245.8891      1157.9043     -391.14862     -7.8115189    
   2530000   300.52146     -4288.9185      1249.6719     -351.85446      19.664393    
   2535000   296.13089     -4159.1364      1267.5785     -243.42804      23.331673    
   2540000   299.08688     -4234.6185      1231.1781     -328.87684      4.8352755    
   2545000   301.62982     -4264.8619      1206.296      -361.26228      49.363074    
   2550000   296.06173     -4292.9597      1223.3707     -422.07764      16.221605    
   2555000   300.92141     -4164.8718      1237.6164     -236.28664     -10.813892    
   2560000   305.62763     -4210.1014      1249.7646     -227.283        15.861557    
   2565000   296.12836     -4189.7087      1266.422      -275.17953     -0.58273496   
   2570000   302.31631     -4208.9446      1211.1047     -294.39742     -19.324518    
   2575000   303.54491     -4309.773       1239.743      -355.60091      0.41732537   
   2580000   299.23106     -4310.9594      1254.5628     -380.54378     -1.5509305    
   2585000   299.59176     -4327.9538      1251.5871     -397.28834      1.7602343    
   2590000   306.55729     -4280.8813      1246.3305     -293.18358     -5.4374131    
   2595000   298.09767     -4345.4355      1231.5673     -448.15059     -3.4114015    
   2600000   305.7405      -4282.5359      1212.5583     -335.91461      5.4297003    
   2605000   302.44838     -4295.7608      1190.5089     -400.62838     -7.7380022    
   2610000   307.65721     -4241.3401      1221.5501     -268.58686      20.57341     
   2615000   295.73199     -4243.467       1235.0297     -363.87459     -11.460925    
   2620000   300.12645     -4292.0365      1214.1021     -394.0746       17.31426     
   2625000   300.22294     -4292.9662      1202.0657     -406.17785      3.484991     
   2630000   304.17359     -4303.3764      1277.7888     -305.53652     -8.7640368    
   2635000   297.03573     -4194.4411      1214.2171     -324.00273     -4.4182038    
   2640000   295.76351     -4293.48        1203.0887     -445.54671      8.725218     
   2645000   293.35221     -4271.7444      1188.8776     -459.58517      36.806937    
   2650000   301.31521     -4173.0991      1250.781      -227.82784     -8.2304161    
   2655000   301.04886     -4169.2715      1260.1889     -216.97424      13.814574    
   2660000   290.94043     -4178.3317      1256.9753     -319.64186     -3.8239577    
   2665000   295.32834     -4146.8727      1218.7883     -287.13129      33.079752    
   2670000   293.15395     -4240.7073      1245.9548     -373.24384     -6.2912739    
   2675000   301.01553     -4221.5713      1156.5079     -373.25303      1.0873117    
   2680000   296.94805     -4230.6646      1236.5677     -338.65962     -10.459894    
   2685000   297.91993     -4270.5554      1215.0833     -391.34394      4.8560911    
   2690000   304.12224     -4280.7911      1311.0914     -250.10785      22.46121     
   2695000   313.22594     -4262.7858      1233.9778     -227.80691      6.1301944    
   2700000   303.11695     -4279.6008      1221.8055     -347.19317     -6.0720897    
   2705000   296.85641     -4256.98        1241.8156     -360.54676      6.0866928    
   2710000   297.67607     -4223.1387      1187.99       -373.20118     -26.72131     
   2715000   303.12003     -4238.1038      1196.9438     -330.53035      22.66588     
   2720000   301.50426     -4203.1427      1173.6894     -333.27247     -10.36935     
   2725000   292.20458     -4230.6685      1251.8474     -365.80206      25.680853    
   2730000   286.58822     -4182.3794      1228.0685     -391.51583     -11.961799    
   2735000   297.86063     -4201.968       1219.6668     -318.70328     -5.0584995    
   2740000   292.98256     -4234.8076      1231.4766     -383.3549       0.12002477   
   2745000   292.6183      -4251.1012      1217.5431     -416.83937      9.3765443    
   2750000   299.75587     -4215.1778      1223.3568     -311.27511      14.51841     
   2755000   299.69185     -4198.2241      1231.2501     -287.0006      -14.779289    
   2760000   302.61883     -4224.1179      1214.223      -303.74721     -11.871781    
   2765000   298.27331     -4177.0858      1232.7085     -277.08909      9.3593772    
   2770000   300.3358      -4179.4969      1222.8214     -270.94355     -5.660018     
   2775000   296.31974     -4214.0767      1214.0948     -350.16328      7.3649557    
   2780000   299.63078     -4218.9964      1230.2752     -309.29385     -4.6119433    
   2785000   293.54798     -4206.9291      1195.3598     -386.537        0.17179856   
   2790000   296.3587      -4193.0026      1252.2621     -290.5735       0.62737658   
   2795000   298.05438     -4221.7866      1221.2262     -335.22993      23.82606     
   2800000   299.29282     -4195.5011      1278.3736     -240.72238     -14.12663     
   2805000   302.98507     -4231.464       1205.1616     -316.87963      10.943761    
   2810000   302.90298     -4209.2738      1174.0124     -326.57266      4.5138169    
   2815000   303.06442     -4172.0084      1217.165      -244.71096      10.054768    
   2820000   301.54326     -4232.2804      1175.6071     -360.14366     -2.4214619    
   2825000   299.0484      -4162.5615      1240.2249     -248.11715      3.2934565    
   2830000   300.72587     -4184.2449      1241.7561     -253.26875      4.4650699    
   2835000   300.08785     -4191.9875      1278.8966     -229.57628      9.3451193    
   2840000   301.49239     -4237.0755      1251.3711     -289.62977      21.980571    
   2845000   298.92473     -4174.0169      1212.4863     -288.41714      9.4654518    
   2850000   301.52795     -4171.2241      1285.1587     -189.67275      16.50029     
   2855000   303.50059     -4170.7185      1194.7387     -261.94693      27.109764    
   2860000   302.87511     -4166.3871      1230.8566     -227.09101     -15.048148    
   2865000   297.47542     -4175.4904      1222.6624     -292.6749      -13.790699    
   2870000   298.44738     -4218.4882      1241.3516     -308.29181     -4.2908584    
   2875000   297.37492     -4143.3234      1243.9022     -240.16678      28.314505    
   2880000   295.10597     -4189.4195      1200.5073     -349.94777      2.9842529    
   2885000   307.14351     -4177.1027      1269.0933     -161.39999     -2.3807845    
   2890000   297.32387     -4148.8705      1257.3239     -232.74867     -3.5571231    
   2895000   298.37569     -4151.2516      1191.5199     -291.52796      0.23372456   
   2900000   299.91167     -4155.8008      1176.3571     -297.50447      10.357445    
   2905000   294.46748     -4224.094       1241.7933     -349.04582      6.6538299    
   2910000   304.77653     -4185.2383      1254.1101     -205.68532      31.929521    
   2915000   295.03821     -4150.7456      1223.2831     -289.10395      4.9121998    
   2920000   306.26867     -4192.1677      1223.0986     -230.28297      27.642591    
   2925000   292.1798      -4185.4497      1243.6341     -329.01819      17.272943    
   2930000   303.65023     -4152.4557      1243.3087     -193.77594     -20.205445    
   2935000   300.0457      -4113.2851      1212.2888     -217.85858     -42.21255     
   2940000   301.08401     -4235.7121      1203.6775     -339.61195     -2.6339371    
   2945000   301.22978     -4252.5459      1205.2144     -353.60531      7.8765023    
   2950000   297.54779     -4211.0707      1279.281      -270.98943      23.471202    
   2955000   299.5047      -4265.838       1200.9914     -386.54673     -3.4727185    
   2960000   293.90043     -4199.7761      1263.1599     -308.4321      -24.956165    
   2965000   303.00711     -4202.5339      1193.4545     -299.45948      2.0182066    
   2970000   299.83218     -4154.2111      1194.4287     -278.55411      13.1303      
   2975000   298.23063     -4191.7247      1240.3014     -284.51671     -1.2761032    
   2980000   295.95765     -4204.5046      1202.9291     -354.99483      11.489279    
   2985000   303.40983     -4161.2584      1228.7721     -219.26503      9.6414048    
   2990000   297.84873     -4185.4647      1238.3938     -283.57936      3.0981088    
   2995000   293.32722     -4199.1206      1191.6551     -384.40734     -5.6575696    
   3000000   305.23339     -4197.0536      1228.5992     -238.92611      12.166347    
   3005000   293.66531     -4237.8507      1246.7196     -365.04957      0.54164312   
   3010000   298.68503     -4172.3711      1226.9738     -274.42721      2.4997288    
   3015000   304.59669     -4187.9032      1219.5293     -244.53931      18.164601    
   3020000   303.37918     -4211.5801      1214.4198     -284.21314      2.8116412    
   3025000   293.2287      -4227.8785      1252.3901     -353.31124     -14.632449    
   3030000   299.15404     -4195.4553      1230.5443     -289.74688      16.460011    
   3035000   296.82749     -4206.6992      1212.935      -339.40518     -14.85465     
   3040000   306.91987     -4270.7084      1253.1935     -272.90541      0.68134284   
   3045000   293.42804     -4286.8528      1271.089      -391.80403     -1.2148439    
   3050000   300.12636     -4249.2186      1215.3853     -349.97436     -4.1862719    
   3055000   301.09721     -4238.7607      1226.4788     -319.74112      21.700923    
   3060000   301.64839     -4262.7588      1277.0534     -288.23572     -1.5571187    
   3065000   291.90609     -4165.5064      1227.1909     -327.96562     -12.002292    
   3070000   297.71201     -4249.931       1219.8605     -367.80167      13.252668    
   3075000   302.40246     -4288.7514      1225.2232     -359.31536     -6.0346914    
   3080000   295.6379      -4237.0984      1206.4699     -386.90727      7.0622566    
   3085000   301.62927     -4225.4709      1238.1123     -290.05988      5.8068014    
   3090000   297.70675     -4256.9255      1193.9837     -400.71992     -2.0253671    
   3095000   303.74079     -4276.3079      1183.2607     -376.86643     -7.431813     
   3100000   293.36196     -4222.8369      1229.4027     -370.06541      14.552187    
   3105000   302.07914     -4192.1358      1212.1079     -278.70634      17.062094    
   3110000   298.39075     -4205.609       1215.1212     -322.1494      -3.1482688    
   3115000   296.34506     -4210.2812      1218.5163     -341.7199      -7.2463306    
   3120000   296.91928     -4216.5028      1268.5779     -292.745       -3.6354495    
   3125000   297.16981     -4196.7878      1201.3629     -338.00467     -3.5372577    
   3130000   293.68411     -4169.2717      1210.1871     -332.8349       11.375947    
   3135000   295.31785     -4224.4261      1218.2981     -365.26878      39.132526    
   3140000   303.45161     -4293.7903      1252.208      -327.98753      20.267472    
   3145000   302.08396     -4235.7284      1231.2151     -303.14853     -7.3773439    
   3150000   296.67663     -4264.0057      1192.7259     -418.26983      17.145447    
   3155000   297.02061     -4263.7907      1236.4077     -371.29696     -25.906371    
   3160000   302.14067     -4239.4234      1202.1593     -335.39232     -5.8563047    
   3165000   293.42507     -4286.6174      1220.7719     -441.91226      5.3774107    
   3170000   299.89851     -4316.2745      1182.9874     -451.46569     -24.654926    
   3175000   305.10285     -4349.4124      1217.7346     -403.31691     -1.2003492    
   3180000   304.42312     -4269.8355      1187.3341     -360.21893     -23.249074    
   3185000   298.70442     -4259.1012      1217.5535     -370.40426      21.849562    
   3190000   293.08911     -4181.0726      1226.2891     -333.85463      6.7688137    
   3195000   303.52146     -4167.1484      1258.1517     -194.77722      11.429962    
   3200000   301.66011     -4230.0701      1244.6832     -287.81243      0.28403323   
   3205000   299.13978     -4307.0991      1217.9623     -414.10019      7.8263159    
   3210000   306.69221     -4309.9059      1250.7837     -316.54862      26.343079    
   3215000   307.10637     -4304.6914      1245.9736     -312.44054     -4.019818     
   3220000   292.38284     -4259.7337      1227.4803     -417.64024      5.8978978    
   3225000   297.84105     -4301.1795      1236.4486     -401.30818      2.7828546    
   3230000   304.41905     -4209.8182      1218.0458     -269.52631      0.41164735   
   3235000   298.87532     -4215.6662      1243.5313     -299.46323      4.328838     
   3240000   293.71597     -4276.5858      1201          -449.05122      22.926498    
   3245000   302.87019     -4228.0468      1223.1468     -296.50446     -11.049683    
   3250000   294.33152     -4259.0633      1245.323      -381.70124      15.637608    
   3255000   288.82561     -4260.905       1203.3001     -474.80203     -2.5866047    
   3260000   299.57465     -4229.2355      1228.5728     -321.73742     -5.5114788    
   3265000   298.72156     -4177.2271      1267.1926     -238.73778     -17.328334    
   3270000   299.47359     -4312.5328      1207.1884     -427.32267     -2.7145943    
   3275000   303.081       -4273.8277      1253.8745     -309.67256     -31.228261    
   3280000   302.98004     -4231.001       1206.2894     -315.33378      10.260462    
   3285000   297.26258     -4230.993       1228.9882     -343.75493     -15.649007    
   3290000   294.71084     -4164.9779      1264.3062     -265.24061     -18.032222    
   3295000   299.68661     -4164.6524      1245.5123     -239.21355      1.2519977    
   3300000   303.86739     -4189.4111      1234.4999     -237.5983      -6.1833715    
   3305000   294.6362      -4168.315       1202.6359     -330.91546      2.1390491    
   3310000   300.19741     -4205.8268      1198.2057     -323.1268       7.6154905    
   3315000   298.56422     -4263.0126      1194.392      -398.73092      18.348091    
   3320000   311.60746     -4220.8039      1205.7357     -228.54022      8.660329     
   3325000   296.71096     -4258.9165      1261.3955     -344.20396      15.969326    
   3330000   297.04826     -4240.3018      1209.6094     -374.35908      18.970868    
   3335000   301.55485     -4224.8086      1201.1214     -327.05407      32.440723    
   3340000   290.30848     -4184.7574      1205.4386     -383.25546     -19.385001    
   3345000   300.32627     -4225.2956      1212.5967     -327.05223     -15.816417    
   3350000   289.81778     -4185.4347      1253.9713     -339.78821     -6.4399129    
   3355000   299.95212     -4210.7009      1234.5713     -293.82874      18.087692    
   3360000   293.5334      -4190.1888      1231.9205     -333.36625     -2.1449248    
   3365000   300.06163     -4265.2236      1198.0124     -383.93105     -30.432107    
   3370000   300.61594     -4209.0348      1268.5475     -252.25031      0.026775307  
   3375000   297.80498     -4168.6105      1197.6365     -307.87378     -5.1569231    
   3380000   289.78998     -4204.8446      1233.8713     -379.54658      11.424613    
   3385000   306.74552     -4165.2534      1267.1882     -155.01478     -18.462975    
   3390000   303.48668     -4187.0779      1179.7271     -293.44231      18.259314    
   3395000   296.92013     -4172.1916      1229.4379     -287.5662       13.694257    
   3400000   304.83067     -4314.5367      1169.1982     -419.4115      -12.989228    
   3405000   289.85761     -4263.1995      1208.406      -462.76205      5.8107716    
   3410000   304.24244     -4228.9243      1230.8363     -277.42124      11.652209    
   3415000   307.53706     -4252.0249      1223.5513     -278.3449       5.9145976    
   3420000   295.1175      -4256.2659      1205.8787     -411.31956     -6.2178223    
   3425000   301.41138     -4281.4257      1197.1751     -388.90039     -6.1710949    
   3430000   301.07627     -4308.8001      1236.1419     -380.30471     -3.773524     
   3435000   302.31559     -4272           1177.4623     -391.10167     -13.720455    
   3440000   303.44597     -4215.9267      1243.7006     -258.68164      19.497166    
   3445000   303.56631     -4241.088       1186.7012     -339.76631      15.368777    
   3450000   305.31107     -4208.7284      1218.7764     -259.72904      14.735585    
   3455000   305.54252     -4203.6603      1241.597      -229.77071      0.31025386   
   3460000   295.04737     -4245.918       1189.9918     -417.48572      10.466173    
   3465000   303.94932     -4207.8932      1247.3789     -242.46881      18.048377    
   3470000   300.24115     -4249.5383      1296.1495     -268.50326      42.760319    
   3475000   300.98785     -4218.7195      1231.3557     -295.80099     -29.436803    
   3480000   299.92987     -4203.0805      1240.2734     -280.70528     -11.74349     
   3485000   296.43794     -4183.3977      1240.145      -292.37719      4.5893007    
   3490000   299.84514     -4126.0104      1234.5168     -210.14937      6.1320707    
   3495000   294.92135     -4163.5289      1169.1516     -357.06376     -11.719089    
   3500000   295.34752     -4191.5657      1219.898      -330.54309      22.302576    
   3505000   303.77192     -4210.2622      1249.8672     -243.93585     -8.6757504    
   3510000   299.07154     -4250.156       1250.8681     -324.86157     -2.4831602    
   3515000   296.96628     -4298.1499      1259.8496     -382.70012     -3.6632242    
   3520000   293.2749      -4257.5904      1273.9519     -361.04815      4.6635894    
   3525000   295.83159     -4319.0271      1231.1782     -442.39556     -9.8344382    
   3530000   308.24701     -4201.6648      1255.6759     -189.5115      -3.9230977    
   3535000   297.97083     -4256.6536      1205.0448     -387.02549      23.262515    
   3540000   304.6281      -4307.1576      1239.9097     -343.13242      1.2476533    
   3545000   301.36585     -4284.3725      1195.5614     -393.86807      13.430542    
   3550000   295.31168     -4279.6835      1234.0194     -404.86009      28.784485    
   3555000   303.13964     -4302.3302      1229.1266     -362.39857      27.348285    
   3560000   303.69652     -4337.274       1216.1293     -405.35974      16.149777    
   3565000   298.48356     -4313.5621      1213.9999     -430.39382     -4.0438024    
   3570000   300.45742     -4283.0084      1246.7791     -349.40986      10.494671    
   3575000   297.49819     -4293.5198      1241.0587     -392.10422      14.839324    
   3580000   299.57352     -4305.8744      1203.2158     -423.74331      4.4576492    
   3585000   302.27696     -4349.5291      1165.6251     -480.81339      10.848697    
   3590000   304.07549     -4281.1247      1237.1989     -324.75196     -12.413865    
   3595000   305.51811     -4252.3161      1206.9999     -313.24187      22.301596    
   3600000   300.97804     -4174.7951      1197.972      -285.34797      4.2945342    
   3605000   301.7308      -4196.7168      1239.3113     -259.1988       1.6678281    
   3610000   295.53684     -4187.8897      1227.1905     -317.88167      3.8780863    
   3615000   305.84331     -4135.2535      1217.0855     -183.18551      18.797243    
   3620000   298.73        -4189.655       1256.2806     -262.00229      4.1073476    
   3625000   301.12047     -4246.3428      1206.4451     -347.14897     -2.5201056    
   3630000   307.31149     -4209.1488      1232.5133     -228.524        29.574167    
   3635000   297.05724     -4125.7489      1244.1226     -225.21271     -4.0542414    
   3640000   301.66632     -4151.726       1251.9247     -202.17134     -4.7767433    
   3645000   297.38413     -4106.3493      1237.8528     -209.15968      15.111797    
   3650000   299.87286     -4203.795       1240.2743     -281.92866     -3.6604873    
   3655000   303.53011     -4088.1429      1209.3274     -164.51874     -2.9026827    
   3660000   302.83256     -4147.6171      1195.4407     -244.11735     -0.1579367    
   3665000   296.98829     -4177.8184      1218.5309     -303.49045      11.976883    
   3670000   298.4017      -4116.1694      1220.9306     -226.80252      18.057848    
   3675000   297.45465     -4108.7223      1238.2452     -210.50964     -13.255615    
   3680000   298.2727      -4143.1034      1168.8612     -306.95945      19.583786    
   3685000   300.95798     -4076.0338      1242.3451     -142.39295      19.459822    
   3690000   299.12015     -4107.01        1156.7971     -275.35184      7.2715837    
   3695000   300.86038     -4135.0967      1235.8514     -208.82232      11.332016    
   3700000   296.77976     -4187.7832      1204.4505     -329.40048      18.722643    
   3705000   302.53743     -4176.0075      1231.3274     -239.26025      14.405796    
   3710000   306.48813     -4128.6208      1217.3799     -170.4922       43.25278     
   3715000   292.07948     -4158.2539      1252.3732     -293.98027     -20.685363    
   3720000   306.40338     -4205.9275      1219.81       -246.12664     -13.167533    
   3725000   298.60208     -4197.8374      1222.9222     -304.687        48.630215    
   3730000   305.31475     -4194.9495      1242.0122     -222.68146      25.517489    
   3735000   300.74013     -4187.8781      1212.6706     -285.85983     -6.8223594    
   3740000   301.19858     -4213.075       1236.0632     -283.56456     -3.2739233    
   3745000   299.56751     -4156.3014      1207.3031     -270.1368       6.2284732    
   3750000   302.5402      -4129.93        1202.2661     -222.21924     -11.013404    
   3755000   300.9432      -4213.7921      1213.2404     -309.38828     -17.809879    
   3760000   291.5673      -4200.344       1191.5125     -401.51132      19.647963    
   3765000   305.36133     -4149.3317      1252.6153     -166.04411     -7.8754132    
   3770000   302.66414     -4094.6368      1253.3482     -134.73577      7.4448876    
   3775000   297.56448     -4159.9479      1242.4595     -256.53879     -26.225959    
   3780000   293.43845     -4162.8673      1207.9121     -330.90232      10.255403    
   3785000   315.20459     -4180.9311      1196.5859     -165.65014     -19.192554    
   3790000   305.24863     -4248.4208      1194.8994     -323.85688      14.05434     
   3795000   306.0543      -4246.5738      1225.541      -284.16355      3.4015739    
   3800000   297.26852     -4231.1963      1216.9143     -355.97898     -7.1283118    
   3805000   299.57119     -4176.0496      1221.8254     -275.32966      20.456507    
   3810000   300.34707     -4169.3123      1236.1462     -247.3334       13.242203    
   3815000   294.51007     -4198.2952      1196.0178     -368.64165     -5.0866088    
   3820000   293.53298     -4201.2296      1160.9001     -415.43124     -19.188303    
   3825000   304.2397      -4193.2038      1198.2895     -274.27205      2.843501     
   3830000   299.65425     -4213.9083      1136.8474     -397.42375      12.874043    
   3835000   295.77221     -4173.9001      1227.4618     -301.51595     -0.54209179   
   3840000   298.08778     -4253.1128      1264.2655     -323.21809      17.34595     
   3845000   295.39356     -4234.712       1222.55       -370.62575     -3.4553989    
   3850000   299.46753     -4200.4066      1210.7089     -311.73022      2.1499249    
   3855000   300.37252     -4187.3333      1226.0436     -275.22945      9.4521153    
   3860000   300.33158     -4191.6428      1235.396      -270.55266     -8.6148413    
   3865000   294.33132     -4259.7007      1189.7383     -437.92508      13.186967    
   3870000   303.39695     -4235.9932      1243.5914     -279.2958      -1.6771615    
   3875000   299.32625     -4206.496       1225.3178     -304.47406     -4.3719846    
   3880000   304.85823     -4185.2644      1189.3141     -269.7769      -40.515163    
   3885000   300.89248     -4202.72        1192.3786     -319.63147      1.8466406    
   3890000   299.54565     -4205.005       1243.4813     -282.8576       19.418932    
   3895000   307.23014     -4207.0526      1209.521      -250.1475       16.428019    
   3900000   298.75149     -4213.9115      1200.1925     -342.15468      11.206656    
   3905000   295.64098     -4258.7901      1196.8307     -418.21056     -30.206998    
   3910000   306.65865     -4269.7017      1204.4121     -323.01608      26.847842    
   3915000   306.66211     -4214.1436      1184.3633     -287.47577      2.7668376    
   3920000   303.12882     -4220.3788      1280.975      -228.69557     -4.2425425    
   3925000   307.73369     -4296.2513      1211.7734     -332.59079      3.3932296    
   3930000   307.72395     -4271.3098      1201.6633     -317.84653      3.7406795    
   3935000   296.54147     -4281.6703      1212.0488     -417.82011      8.260625     
   3940000   298.49748     -4271.5046      1224.9831     -377.2287      -9.7547438    
   3945000   295.64461     -4241.3272      1222.1042     -375.44169     -19.200743    
   3950000   300.31037     -4261.9153      1193.681      -382.72979     -33.310339    
   3955000   288.45809     -4239.4143      1200.0661     -459.83186      16.142656    
   3960000   299.69036     -4247.5819      1240.8683     -326.75353     -16.876975    
   3965000   296.98436     -4213.5504      1234.0469     -323.74165      16.806886    
   3970000   298.0829      -4221.9503      1231.7769     -324.58788      13.03242     
   3975000   301.6534      -4232.5609      1218.0898     -316.9567       14.011458    
   3980000   303.92992     -4251.5229      1226.7978     -306.85297     -14.326246    
   3985000   299.34632     -4232.312       1204.0702     -351.35828     -8.6991571    
   3990000   300.98833     -4190.3964      1169.7417     -329.08763     -10.392706    
   3995000   296.90789     -4202.0406      1214.6026     -332.35984      3.8486619    
   4000000   294.09502     -4243.9362      1210.8108     -403.20112     -6.5867047    
   4005000   296.26503     -4228.9229      1199.2417     -380.35194     -15.808528    
   4010000   302.05163     -4168.5195      1241.2428     -226.20114     -10.890825    
   4015000   299.04098     -4231.3668      1234.0157     -323.198        8.6262911    
   4020000   301.92587     -4276.8957      1208.7594     -368.18529     -14.963637    
   4025000   296.5117      -4249.5419      1225.9058     -372.10086     -36.537757    
   4030000   306.58457     -4234.5455      1209.122      -283.8123      -9.5431398    
   4035000   299.75606     -4157.0079      1257.7957     -218.66458     -1.4491059    
   4040000   296.34858     -4199.4639      1197.6086     -351.77875     -2.6679408    
   4045000   303.09637     -4265.6918      1244.5221     -310.75167      14.631964    
   4050000   296.45322     -4158.9251      1199.725      -308.18798     -2.4123647    
   4055000   307.47667     -4250.4853      1211.7849     -289.11174      0.73977821   
   4060000   302.34107     -4261.1442      1218.8922     -338.58808     -5.3073278    
   4065000   308.46956     -4265.0748      1227.5022     -279.10513      9.1077526    
   4070000   297.67119     -4312.631       1217.6262     -433.10088     -1.0606569    
   4075000   300.84582     -4207.5744      1203.7073     -313.57441     -1.4049318    
   4080000   304.5176      -4246.5817      1257.6435     -265.81089      8.6820712    
   4085000   307.12604     -4161.1275      1257.3236     -157.35073     -0.11851693   
   4090000   300.67282     -4223.7867      1194.5685     -340.47251      7.2424174    
   4095000   304.17442     -4178.835       1204.2901     -254.48643      18.920521    
   4100000   295.15279     -4147.0291      1179.0422     -328.60379     -26.651277    
   4105000   297.53425     -4171.8065      1263.8833     -247.244        0.35849443   
   4110000   294.99264     -4195.7049      1250.474      -307.27984      17.743202    
   4115000   299.85193     -4161.4567      1243.5451     -236.50675      13.783616    
   4120000   296.74698     -4172.7217      1221.1387     -297.9439      -9.1861816    
   4125000   313.0953      -4238.2689      1255.2472     -183.18887      37.089293    
   4130000   294.25411     -4231.9082      1210.0403     -390.52102      9.9231971    
   4135000   300.94078     -4263.5356      1215.4545     -356.93924     -14.825109    
   4140000   296.18561     -4169.7009      1215.897      -305.18466      5.09581      
   4145000   296.9866      -4244.0421      1270.4223     -317.83781      4.1845441    
   4150000   295.20415     -4217.0702      1213.9709     -363.25673      14.867401    
   4155000   301.41833     -4243.3531      1260.6724     -287.26832      24.784697    
   4160000   297.25872     -4239.3887      1225.2625     -355.91089     -0.52687395   
   4165000   294.81998     -4238.0076      1172.8279     -428.77266      22.097337    
   4170000   302.97135     -4229.0446      1222.5459     -297.19858     -6.5826085    
   4175000   297.33348     -4212.2761      1253.3278     -300.06438      3.6903934    
   4180000   305.24505     -4170.4513      1255.5438     -185.275       -3.9159768    
   4185000   297.56689     -4187.411       1230.4557     -295.98415     -0.015000429  
   4190000   309.34035     -4159.1032      1266.5908     -126.25795      17.627843    
   4195000   304.10925     -4210.3428      1222.7093     -268.15781      13.995464    
   4200000   296.35087     -4170.5981      1202.9385     -317.56258     -25.288885    
   4205000   300.85363     -4161.2505      1265.0173     -205.87064      20.239076    
   4210000   302.79094     -4097.4942      1201.6158     -188.19159      24.298402    
   4215000   299.05572     -4213.3263      1224.4661     -314.57523     -19.254426    
   4220000   301.53085     -4113.706       1252.8744     -164.41304      32.823613    
   4225000   292.10344     -4125.6113      1223.8146     -289.68206      12.636148    
   4230000   301.34325     -4175.6938      1219.3013     -261.65158      2.0060383    
   4235000   308.16627     -4204.1835      1208.5905     -239.83765      16.694555    
   4240000   304.55746     -4220.1522      1265.1994     -231.46896      7.9994947    
   4245000   304.54332     -4253.0238      1231.7016     -297.96493     -3.7148879    
   4250000   298.28344     -4176.5495      1230.0975     -279.07317     -1.3550811    
   4255000   309.18421     -4246.3749      1206.4765     -275.04029     -18.251655    
   4260000   293.60327     -4252.3668      1215.0285     -411.81158     -11.540093    
   4265000   307.68755     -4222.741       1197.1525     -274.1141      -6.6695468    
   4270000   307.54095     -4245.8878      1234.6743     -261.05006      10.274918    
   4275000   302.37483     -4200.519       1215.4822     -281.07088     -2.7417499    
   4280000   294.00535     -4231.6698      1244.2684     -358.27902      0.68993827   
   4285000   308.9521      -4209.8648      1204.2729     -242.80926      7.8152352    
   4290000   295.12906     -4190.909       1256.3852     -295.35275     -7.853152     
   4295000   301.32174     -4158.417       1200.7298     -263.13862     -13.061793    
   4300000   300.56703     -4152.3013      1240.3766     -224.12508     -0.20055597   
   4305000   299.69918     -4172.9         1164.9528     -327.90825      12.689218    
   4310000   295.9912      -4201.1407      1199.0771     -355.18292      13.568912    
   4315000   297.13494     -4168.5673      1210.157      -301.30192      2.6079121    
   4320000   300.25959     -4191.2298      1204.5332     -301.64616     -6.3048047    
   4325000   301.84174     -4204.0481      1218.6503     -286.19909     -2.6824336    
   4330000   295.41325     -4231.7042      1262.3126     -327.67916     -16.756623    
   4335000   295.79015     -4184.6852      1223.7995     -315.80285      17.430568    
   4340000   298.90132     -4210.7003      1280.8177     -256.97841      3.3337148    
   4345000   295.48882     -4229.4873      1182.7725     -404.32662     -13.175031    
   4350000   300.14096     -4216.3953      1235.7418     -296.66385     -29.68702     
   4355000   312.80866     -4281.7241      1202.9075     -281.54701      15.114527    
   4360000   297.31709     -4317.5109      1213.0473     -445.72627     -0.0081029905 
   4365000   299.43346     -4309.7333      1164.958      -467.1125       26.596915    
   4370000   293.12174     -4273.0111      1231.2551     -420.53533     -17.386306    
   4375000   307.01808     -4227.302       1209.4506     -272.36363     -17.141551    
   4380000   298.79243     -4310.5825      1191.5707     -447.0814       19.163185    
   4385000   292.93752     -4203.5991      1181.1752     -402.85062     -20.844109    
   4390000   305.50871     -4257.2147      1209.1639     -316.06048     -0.46131567   
   4395000   289.8386      -4207.8155      1248.3392     -367.61488      3.3214333    
   4400000   303.38486     -4198.1744      1234.6898     -250.4867      -21.129052    
   4405000   310.18175     -4249.0752      1208.366      -266.93052      5.9400843    
   4410000   304.89628     -4290.2293      1255.6132     -308.1024      -7.6342025    
   4415000   294.44019     -4318.2099      1262.074      -423.12508      10.15994     
   4420000   299.38819     -4271.5218      1241.8547     -352.40908     -11.878217    
   4425000   297.47154     -4263.5505      1238.6451     -364.78691     -16.167099    
   4430000   298.53895     -4236.0354      1207.7031     -358.66853     -13.637329    
   4435000   304.55136     -4254.2608      1198.0414     -332.79011      17.805857    
   4440000   289.44456     -4216.1493      1219.2332     -408.57836      15.961857    
   4445000   309.61392     -4299.3849      1249.5315     -281.15249     -11.503844    
   4450000   299.67612     -4305.1086      1200.2415     -425.0344      -27.067567    
   4455000   300.48436     -4278.6233      1194.3363     -397.22659     -10.887179    
   4460000   300.71614     -4201.055       1176.8953     -335.02657     -5.3995232    
   4465000   294.01041     -4248.2302      1252.5767     -366.48587     -2.7235186    
   4470000   312.87223     -4267.7299      1243.2922     -226.59972      19.662497    
   4475000   301.35414     -4235.7629      1249.6819     -291.24276      11.454282    
   4480000   294.4261      -4250.9769      1232.9082     -385.18386      15.986884    
   4485000   299.92435     -4184.7932      1197.075      -305.66564      11.752868    
   4490000   299.37876     -4219.3412      1235.9202     -306.24742      8.5122018    
   4495000   291.39362     -4216.8008      1252.9212     -358.11253     -4.7437293    
   4500000   300.9942      -4253.3766      1277.5674     -284.18956      34.892599    
   4505000   291.99206     -4273.2777      1198.7937     -463.36538      15.327828    
   4510000   303.2163      -4219.1859      1227.6496     -280.04571      39.995659    
   4515000   304.95835     -4234.1397      1268.6292     -238.44175      7.784124     
   4520000   301.93528     -4287.8444      1237.0211     -350.7881       3.4380852    
   4525000   301.1664      -4248.1888      1288.5507     -266.47863     -1.233477     
   4530000   293.18532     -4232.1746      1215.4458     -394.93945     -0.38430649   
   4535000   305.47723     -4275.5556      1212.8601     -330.98674     -4.0922285    
   4540000   301.51276     -4300.0193      1271.7482     -332.01426     -7.0488023    
   4545000   295.33879     -4270.2999      1210.2584     -418.99492      26.361719    
   4550000   288.47761     -4203.6407      1236.0102     -387.93959     -4.7039716    
   4555000   301.7151      -4237.1051      1199.5957     -339.4432       12.573726    
   4560000   300.11675     -4264.6407      1193.8497     -387.01784     -2.0163135    
   4565000   295.74008     -4198.6903      1221.8468     -332.20843     -6.0676611    
   4570000   292.12041     -4269.748       1237.0313     -420.45039     -5.7092119    
   4575000   301.8331      -4289.986       1218.9271     -371.93748     -5.1654781    
   4580000   304.36499     -4245.4765      1203.3363     -320.37754      13.013927    
   4585000   294.97541     -4192.0427      1208.7404     -345.50534      6.428269     
   4590000   302.06723     -4174.7453      1219.179      -254.35124     -3.8539921    
   4595000   305.05389     -4172.5484      1256.1669     -188.45846     -3.6181505    
   4600000   295.03956     -4144.4057      1190.6588     -315.37626      9.1770741    
   4605000   303.47053     -4058.4172      1205.8804     -138.77276     -15.223058    
   4610000   298.02076     -4201.484       1227.6335     -308.82069      0.30856331   
   4615000   303.51118     -4159.309       1209.6558     -235.52561      10.304467    
   4620000   295.0053      -4193.705       1225.4352     -330.20545      1.0136766    
   4625000   301.14497     -4154.0346      1243.2817     -217.78496     -33.580659    
   4630000   303.10946     -4115.5268      1225.2121     -179.77955      21.661667    
   4635000   297.18263     -4193.9008      1224.8826     -311.48324     -4.4835497    
   4640000   300.51939     -4267.6145      1240.9518     -339.28899      8.5288312    
   4645000   295.79417     -4232.5466      1244.1848     -343.24316      0.49341418   
   4650000   299.39795     -4229.2151      1207.5978     -344.272        7.1174615    
   4655000   299.45728     -4201.6724      1203.2533     -320.54323      9.6469343    
   4660000   295.57533     -4196.9181      1205.8901     -347.86625     -2.6086195    
   4665000   299.5743      -4220.2274      1204.7692     -336.53598      15.856777    
   4670000   304.09524     -4225.7105      1199.4138     -306.94625      18.724784    
   4675000   300.64948     -4232.5105      1215.4712     -328.50231      10.919241    
   4680000   298.7356      -4170.7628      1232.9302     -266.41035     -30.839483    
   4685000   297.6503      -4169.4213      1204.4975     -303.2068       4.8083596    
   4690000   296.3129      -4206.6245      1194.9367     -361.93038      10.351342    
   4695000   298.28337     -4134.0174      1227.7564     -238.88283      13.06925     
   4700000   309.25421     -4203.6387      1256.6014     -181.55307      13.282927    
   4705000   297.25783     -4171.513       1252.5273     -260.77829      3.0296868    
   4710000   299.47734     -4183.3365      1200.2889     -304.99238      23.000276    
   4715000   305.15589     -4176.7563      1174.0033     -273.91778      18.669719    
   4720000   303.26393     -4174.3943      1210.6622     -251.81553     -20.744511    
   4725000   307.95198     -4178.2666      1236.1782     -188.24923      13.970415    
   4730000   302.95045     -4203.7307      1207.6593     -286.95814     -9.6305639    
   4735000   303.16336     -4155.0201      1197.6276     -246.37537     -24.200357    
   4740000   303.12538     -4196.2231      1200.0791     -285.46655      12.827155    
   4745000   301.08054     -4190.8568      1207.3386     -291.12649      17.310204    
   4750000   294.85315     -4191.7063      1215.3813     -339.62134      8.0137526    
   4755000   301.96899     -4192.3525      1249.949      -242.0669      -14.469397    
   4760000   303.65143     -4196.7637      1271.0434     -210.33852     -1.2840212    
   4765000   302.20634     -4178.8541      1231.9469     -244.44821      16.760547    
   4770000   296.97349     -4204.9822      1206.5175     -342.80003      2.7426058    
   4775000   299.47628     -4178.5454      1218.0475     -282.45213     -10.286359    
   4780000   297.03347     -4217.393       1249.3316     -311.86033      12.922192    
   4785000   305.49945     -4121.708       1206.0155     -183.78497     -12.588407    
   4790000   295.80436     -4200.0219      1208.6647     -346.14746      23.379874    
   4795000   303.25929     -4187.6964      1252.8337     -222.98774      1.5661317    
   4800000   297.43276     -4203.5182      1264.3216     -279.42494     -17.131251    
   4805000   296.61434     -4253.2445      1208.9394     -391.85197     -4.5419592    
   4810000   304.5215      -4208.081       1260.6014     -224.31736     -1.3890817    
   4815000   297.66977     -4229.2965      1221.1211     -346.28421     -7.6257705    
   4820000   299.81277     -4251.2789      1221.4236     -348.80063      3.3111386    
   4825000   290.88464     -4307.6114      1233.7648     -472.63102      6.0972865    
   4830000   299.73124     -4377.6786      1268.811      -428.54201      2.2375565    
   4835000   307.19157     -4332.2385      1226.0379     -359.16144     -26.63608     
   4840000   304.3282      -4393.0481      1257.7934     -413.82107      17.592123    
   4845000   299.82592     -4307.1543      1155.3909     -470.59101      1.5773117    
   4850000   298.84923     -4263.3939      1246.0821     -344.87346      5.7943355    
   4855000   306.47179     -4360.8532      1182.7332     -437.5175      -21.039192    
   4860000   305.93899     -4383.729       1196.3864     -451.50457      9.9093209    
   4865000   298.43864     -4293.322       1207.4055     -417.1498      -3.5098778    
   4870000   301.10056     -4328.3836      1177.6808     -458.1321       5.728669     
   4875000   304.79487     -4257.8735      1202.3135     -329.95321     -34.45683     
   4880000   301.30969     -4275.0184      1245.9665     -334.61105      9.6561069    
   4885000   301.77497     -4291.8068      1162.7051     -430.50008      9.2118355    
   4890000   296.81238     -4261.6158      1246.8363     -360.55562     -10.281899    
   4895000   295.06306     -4227.3184      1223.5783     -365.15924     -21.535239    
   4900000   300.99976     -4224.9345      1216.8837     -316.38135     -15.902244    
   4905000   296.69202     -4238.8721      1199.5625     -386.16191     -4.6337077    
   4910000   299.11363     -4244.0817      1233.8142     -335.46478     -13.917996    
   4915000   294.62752     -4289.1895      1212.666      -441.83743      3.0506574    
   4920000   307.74609     -4268.4159      1228.6787     -287.73931     -0.058003388  
   4925000   294.83896     -4187.1447      1312.2755     -238.29239     -10.316405    
   4930000   295.33338     -4210.3785      1238.3007     -331.07971     -10.373441    
   4935000   300.65684     -4225.5273      1249.2088     -287.71568     -1.0528127    
   4940000   297.05517     -4166.285       1249.8018     -260.08812      16.370116    
   4945000   301.03601     -4283.313       1191.8308     -399.48876      6.564574     
   4950000   304.73943     -4285.2416      1235.1755     -324.95502     -13.140167    
   4955000   297.77745     -4298.3945      1214.5946     -420.94579     -8.5227302    
   4960000   307.44002     -4297.7967      1218.7695     -329.7662      -18.211481    
   4965000   302.96846     -4313.7564      1224.2939     -380.18821      8.309103     
   4970000   299.48138     -4297.0607      1257.1375     -361.83185      14.096063    
   4975000   304.88304     -4260.0186      1219.5852     -314.03816      0.46976298   
   4980000   299.02112     -4280.9425      1222.3776     -384.5895      -35.564661    
   4985000   297.11218     -4207.495       1256.1506     -294.43954     -3.3543142    
   4990000   296.27287     -4275.3408      1216.886      -409.05536     -25.879985    
   4995000   294.12239     -4297.5673      1244.3598     -423.0386       2.3840713    
   5000000   305.64115     -4219.3059      1193.9663     -292.16503     -15.974106    
   5005000   302.82049     -4276.0038      1306.1605     -261.89218      5.1406154    
   5010000   298.51226     -4276.1581      1255.4375     -351.2955      -4.7511718    
Loop time of 6227.87 on 18 procs for 5000000 steps with 3001 atoms

Performance: 2080.970 ns/day, 0.012 hours/ns, 802.843 timesteps/s
99.6% CPU use with 18 MPI tasks x 1 OpenMP threads

MPI task timing breakdown:
Section |  min time  |  avg time  |  max time  |%varavg| %total
---------------------------------------------------------------
Pair    | 47.861     | 462.72     | 2007.5     |2661.6 |  7.43
Bond    | 23.46      | 53.959     | 148.04     | 507.5 |  0.87
Neigh   | 2604       | 2612.9     | 2628.4     |  19.0 | 41.96
Comm    | 1238.5     | 2964.2     | 3439       |1183.9 | 47.60
Output  | 21.129     | 21.179     | 21.21      |   0.5 |  0.34
Modify  | 25.937     | 58.675     | 158.99     | 518.0 |  0.94
Other   |            | 54.18      |            |       |  0.87

Nlocal:        166.722 ave         495 max          46 min
Histogram: 7 1 4 4 0 0 0 0 0 2
Nghost:        5038.89 ave        5728 max        3914 min
Histogram: 2 0 0 0 5 3 0 0 4 4
Neighs:        3188.83 ave       13783 max         205 min
Histogram: 8 3 3 2 0 0 0 0 0 2
FullNghs:      6377.67 ave       27895 max         469 min
Histogram: 8 3 5 0 0 0 0 0 0 2

Total # of neighbors = 114798
Ave neighs/atom = 38.253249
Ave special neighs/atom = 3.5988004
Neighbor list builds = 500000
Dangerous builds = 500000
Total wall time: 1:43:53
