LAMMPS (23 Jun 2022)
OMP_NUM_THREADS environment is not set. Defaulting to 1 thread. (src/src/comm.cpp:98)
  using 1 OpenMP thread(s) per MPI task
Created orthogonal box = (0 0 0) to (150 150 150)
  2 by 3 by 3 MPI processor grid
Read molecule template lig:
  1 molecules
  0 fragments
  5 atoms with max type 2
  4 bonds with max type 1
  3 angles with max type 1
  0 dihedrals with max type 0
  0 impropers with max type 0
Created 1 atoms
  using box units in orthogonal box = (0 0 0) to (150 150 150)
  create_atoms CPU = 0.000 seconds
Created 3000 atoms
  using lattice units in orthogonal box = (0 0 0) to (150 150 150)
  create_atoms CPU = 0.004 seconds
Finding 1-2 1-3 1-4 neighbors ...
  special bond factors lj:    0        1        1       
  special bond factors coul:  0        0        0       
     2 = max # of 1-2 neighbors
     2 = max # of 1-3 neighbors
     2 = max # of 1-4 neighbors
     7 = max # of special neighbors
  special bonds CPU = 0.001 seconds
3000 atoms in group ligands
Generated 0 of 6 mixed pair_coeff terms from geometric mixing rule
Neighbor list info ...
  update every 1 steps, delay 10 steps, check yes
  max neighbors/atom: 2000, page size: 100000
  master list distance cutoff = 60
  ghost atom cutoff = 60
  binsize = 30, bins = 5 5 5
  1 neighbor lists, perpetual/occasional/extra = 1 0 0
  (1) pair lj/expand, perpetual
      attributes: half, newton on
      pair build: half/bin/newton
      stencil: half/bin/3d
      bin: standard
Setting up Verlet run ...
  Unit style    : real
  Current step  : 0
  Time step     : 30
Per MPI rank memory allocation (min/avg/max) = 8.329 | 8.352 | 8.375 Mbytes
   Step          Temp          E_pair         E_mol          TotEng         Press     
         0   0              9.7186893e+12  3.7351619e-25  9.7186893e+12  7.8980177e+11
      5000   143.25325     -731.69837      623.72008      1173.0539      8.303524     
     10000   141.98708     -945.44873      636.40922      960.67007     -1.28634      
Loop time of 4.45931 on 18 procs for 10000 steps with 3001 atoms

Performance: 5812.558 ns/day, 0.004 hours/ns, 2242.499 timesteps/s
99.4% CPU use with 18 MPI tasks x 1 OpenMP threads

MPI task timing breakdown:
Section |  min time  |  avg time  |  max time  |%varavg| %total
---------------------------------------------------------------
Pair    | 0.18337    | 0.3227     | 0.46461    |  12.7 |  7.24
Bond    | 0.074226   | 0.11008    | 0.1324     |   4.3 |  2.47
Neigh   | 1.7334     | 1.7387     | 1.7442     |   0.2 | 38.99
Comm    | 1.9034     | 2.083      | 2.2918     |   6.8 | 46.71
Output  | 0.001494   | 0.0015044  | 0.0015306  |   0.0 |  0.03
Modify  | 0.095868   | 0.13379    | 0.15891    |   4.1 |  3.00
Other   |            | 0.06951    |            |       |  1.56

Nlocal:        166.722 ave         199 max         128 min
Histogram: 2 1 0 3 2 0 4 2 2 2
Nghost:           4899 ave        5104 max        4674 min
Histogram: 2 1 1 3 1 2 3 2 1 2
Neighs:        1101.22 ave        1769 max         620 min
Histogram: 1 3 2 3 3 3 1 0 1 1

Total # of neighbors = 19822
Ave neighs/atom = 6.6051316
Ave special neighs/atom = 3.5988004
Neighbor list builds = 909
Dangerous builds = 0
1 atoms in group nps
600 atoms in group amines
Generated 0 of 6 mixed pair_coeff terms from geometric mixing rule
Neighbor list info ...
  update every 1 steps, delay 10 steps, check yes
  max neighbors/atom: 2000, page size: 100000
  master list distance cutoff = 60
  ghost atom cutoff = 60
  binsize = 30, bins = 5 5 5
  2 neighbor lists, perpetual/occasional/extra = 1 1 0
  (1) pair lj/expand, perpetual
      attributes: half, newton on
      pair build: half/bin/newton
      stencil: half/bin/3d
      bin: standard
  (2) compute coord/atom, occasional
      attributes: full, newton on
      pair build: full/bin
      stencil: full/bin/3d
      bin: standard
Setting up Verlet run ...
  Unit style    : real
  Current step  : 10000
  Time step     : 30
Per MPI rank memory allocation (min/avg/max) = 9.342 | 9.416 | 10.34 Mbytes
   Step          Temp          E_pair         E_mol          TotEng         Press     
     10000   141.98708     -945.44873      636.40922      960.67007     -1.28634      
     15000   300.74389     -1181.1935      1262.9819      2771.1696      16.769213    
     20000   296.74201     -1432.7289      1271.8135      2492.6794     -1.1497648    
     25000   300.1382      -1604.2153      1275.5134      2355.2631      1.7788327    
     30000   297.96761     -1870.5368      1244.3889      2038.4066     -13.339153    
     35000   300.62951     -2040.8887      1294.6699      1942.1396      10.579121    
     40000   304.76429     -2328.6825      1232.059       1628.71       -2.3542964    
     45000   293.36787     -2428.9357      1286.5753      1481.0612     -7.256164     
     50000   301.52242     -2582.8599      1286.0433      1399.5266     -23.139967    
     55000   302.96414     -2622.1046      1252.7278      1339.8588      9.2090793    
     60000   295.44566     -2729.022       1276.501       1189.4811      2.0122835    
     65000   298.02671     -2837.6123      1296.1409      1123.6117     -3.0735496    
     70000   296.50767     -2913.5229      1256.1938      994.17005     -12.78283     
     75000   298.58914     -2956.2711      1330.2092      1044.0506      24.139184    
     80000   303.19093     -3058.0716      1319.1646      972.35667     -17.869536    
     85000   297.62345     -3060.3175      1284.1803      885.33972     -15.680335    
     90000   303.51232     -3128.6463      1288.0941      873.58548      27.830499    
     95000   303.48965     -3197.323       1243.819       760.43101      12.837746    
    100000   299.19794     -3259.8811      1252.0583      667.73391      17.786652    
    105000   297.68581     -3356.0367      1247.2832      553.28108      36.661363    
    110000   307.86357     -3403.0439      1254.4363      604.44085      34.443173    
    115000   302.20814     -3484.1673      1285.7194      504.02734      20.312021    
    120000   296.39336     -3530.7764      1277.1888      396.88929      5.8955607    
    125000   296.42841     -3537.996       1260.6537      373.44804      42.473796    
    130000   297.29838     -3602.965       1295.5103      351.11538      29.847108    
    135000   295.15481     -3630.7667      1256.2724      264.90699      16.084436    
    140000   300.40088     -3659.6858      1261.2403      287.86841      21.839127    
    145000   296.22024     -3686.8612      1267.3882      229.45582      10.358866    
    150000   302.41145     -3687.9325      1218.6478      235.00851      18.109338    
    155000   302.01631     -3718.231       1228.2778      210.80651     -12.373803    
    160000   296.4041      -3790.0507      1276.2681      136.79044     -4.0152367    
    165000   300.58668     -3857.3765      1230.0811      60.679981      4.9453333    
    170000   293.73617     -3866.7802      1227.4827     -12.582235      4.4531774    
    175000   289.94691     -3923.0471      1252.6253     -77.591929     -5.7318456    
    180000   303.08183     -3964.2129      1242.5639     -11.360926     -26.809791    
    185000   299.79685     -4006.1886      1219.0114     -106.26482      24.154099    
    190000   310.72035     -4013.8516      1243.7035      8.4469924      8.094248     
    195000   297.44723     -3985.2781      1208.9085     -116.46848     -10.906291    
    200000   307.46119     -4064.8824      1250.9951     -64.437084      6.4521469    
    205000   296.4434      -4085.4008      1211.115      -223.36136     -10.477534    
    210000   304.58484     -4113.7957      1234.5574     -155.50968     -1.5358486    
    215000   299.00121     -4117.7252      1288.6324     -155.29546      20.869183    
    220000   304.72468     -4149.6384      1281.9895     -142.66971      16.720039    
    225000   300.3221      -4188.1007      1231.6009     -270.89041     -20.275967    
    230000   300.0865      -4154.9824      1287.5226     -183.95729      2.6737589    
    235000   298.69713     -4160.6345      1239.017      -250.53929     -5.0054119    
    240000   293.26586     -4192.1962      1243.1817     -326.50504      45.222894    
    245000   294.46898     -4204.0373      1242.135      -328.63403     -15.406458    
    250000   305.53243     -4223.2646      1276.8091     -214.25306      19.178263    
    255000   289.7407      -4221.774       1253.4236     -377.36446     -23.031564    
    260000   300.65288     -4284.9335      1271.7241     -324.64197     -10.829218    
    265000   305.68978     -4291.7145      1217.7869     -340.31817      24.269961    
    270000   296.42246     -4304.1091      1157.9994     -495.37257      1.6403591    
    275000   303.96006     -4347.8307      1220.4284     -409.26072     -19.599302    
    280000   310.28354     -4351.4469      1237.6367     -339.12127      0.99427969   
    285000   296.00191     -4373.8594      1241.7415     -485.14146      4.2287846    
    290000   305.40713     -4370.5933      1228.0377     -411.47364      9.944857     
    295000   301.21056     -4383.4234      1227.6295     -462.23953      7.5099686    
    300000   299.89813     -4389.226       1236.3113     -471.09665     -3.5404483    
    305000   303.04484     -4422.3874      1216.3986     -496.03146     -4.1760968    
    310000   299.18655     -4410.5827      1273.0031     -462.12482      14.022316    
    315000   291.28801     -4427.1158      1168.6031     -653.69007     -15.126368    
    320000   295.90647     -4474.8225      1220.5573     -608.14225     -17.792944    
    325000   299.45609     -4467.8195      1210.8558     -579.09854      20.46102     
    330000   303.94055     -4530.3935      1182.6823     -629.7441       5.2756876    
    335000   298.95915     -4505.5133      1260.282      -571.80992     -9.0181731    
    340000   295.5585      -4544.9327      1205.6233     -696.29817      11.294081    
    345000   299.90425     -4542.318       1224.8521     -635.59311      9.2781395    
    350000   306.49543     -4526.3726      1248.9308     -536.62777      19.755509    
    355000   299.7793      -4571.6854      1223.5498     -667.38013     -2.4780926    
    360000   294.38125     -4587.9603      1206.8217     -748.65476      0.13719592   
    365000   299.688       -4649.7475      1222.6755     -747.13301      10.986916    
    370000   294.1356      -4656.0361      1226.7266     -799.02241      1.3393613    
    375000   298.20096     -4646.259       1204.8682     -774.74959      33.744001    
    380000   309.46633     -4640.1365      1229.5624     -643.19312      63.888124    
    385000   304.97475     -4660.5887      1238.4629     -694.91041      30.572219    
    390000   299.97193     -4705.9759      1233.7967     -789.7012       12.485972    
    395000   302.40318     -4705.3652      1208.2155     -792.93034     -8.1558083    
    400000   298.11113     -4716.2691      1258.2798     -792.1513       3.852741     
    405000   297.41333     -4693.4846      1247.2019     -786.68483     -7.7705408    
    410000   298.64409     -4738.4427      1192.9059     -874.93287     -0.72727343   
    415000   302.3372      -4756.5111      1180.5806     -872.30126      24.745089    
    420000   294.88334     -4766.736       1214.838      -914.92426      16.477647    
    425000   301.22037     -4785.3427      1226.8234     -864.87713      22.762023    
    430000   303.20713     -4778.1786      1185.7842     -880.98576     -31.387351    
    435000   297.18624     -4790.7208      1232.2853     -900.86833     -29.475614    
    440000   290.58423     -4786.0825      1234.9886     -952.56477     -22.000267    
    445000   303.61817     -4823.6615      1247.357      -861.22017      3.6747084    
    450000   295.54133     -4816.0243      1240.0796     -933.08694     -0.54418201   
    455000   302.33908     -4818.4008      1236.6374     -878.11719      2.6322533    
    460000   309.5578      -4790.7219      1184.5136     -838.0093      -7.287413     
    465000   299.75785     -4832.0235      1224.1546     -927.30529      27.97081     
    470000   297.26757     -4827.517       1237.0673     -932.15532      38.980136    
    475000   300.20829     -4826.2329      1245.9882     -895.65304     -16.600495    
    480000   303.36513     -4811.8153      1179.0844     -919.90946     -17.461309    
    485000   301.26174     -4840.6135      1166.4194     -980.18196      7.9827918    
    490000   294.40578     -4846.3418      1216.9923     -996.6464       29.102695    
    495000   300.59154     -4834.8337      1212.3094     -934.50552     -3.430214     
    500000   298.75985     -4845.1247      1182.7796     -990.70601     -13.916748    
    505000   292.36921     -4874.9319      1176.4875     -1083.953       3.8549955    
    510000   298.0778      -4854.7278      1232.8258     -956.36209     -24.913694    
    515000   295.04341     -4859.1022      1243.6747     -977.02239      11.747531    
    520000   303.83238     -4916.0502      1180.9206     -1018.1299     -49.954338    
    525000   304.14148     -4876.9991      1252.6117     -904.62345     -4.8162398    
    530000   299.54053     -4846.6921      1228.829      -939.24281     -31.660912    
    535000   293.11667     -4892.3804      1202.5531     -1068.6519     -56.272758    
    540000   301.45142     -4880.3335      1232.4973     -952.12795     -13.918978    
    545000   308.00942     -4915.0291      1213.2794     -947.39695      6.6617118    
    550000   301.45314     -4892.5616      1230.434      -966.40395      1.3572622    
    555000   303.40527     -4904.7331      1204.6688     -986.88392     -10.393925    
    560000   298.40321     -4919.023       1268.753      -981.82011      35.380296    
    565000   297.55759     -4938.5349      1252.663      -1024.984       13.643472    
    570000   299.36676     -4961.762       1210.6156     -1074.0801      9.151656     
    575000   304.71635     -4946.2144      1192.9269     -1028.3828     -8.7002256    
    580000   301.41825     -4963.9215      1191.8707     -1076.6392     -4.4982482    
    585000   300.09349     -4929.8011      1207.2978     -1038.9382     -3.9813887    
    590000   297.79751     -4954.7838      1246.1578     -1045.5925     -1.7128707    
    595000   299.25049     -4979.1285      1242.8103     -1060.2915     -6.1923917    
    600000   301.27182     -4996.4367      1176.2353     -1126.0993      16.585443    
    605000   301.88527     -4968.3411      1216.5615     -1052.1917     -0.42786319   
    610000   295.04843     -4976.2638      1254.043      -1083.7709     -2.4983316    
    615000   302.22412     -5006.3808      1191.2952     -1112.4676      1.8389799    
    620000   290.74021     -5002.2855      1237.4869     -1164.8746      32.964958    
    625000   300.85221     -4971.0931      1216.1061     -1064.6371      11.06759     
    630000   305.94391     -4992.6638      1192.6452     -1064.1365      12.346521    
    635000   304.2826      -4999.1568      1161.1499     -1116.9811      9.5436562    
    640000   303.4589      -4995.2528      1200.8181     -1080.7747     -15.902894    
    645000   297.45403     -4984.081       1198.937      -1125.1821     -6.2377957    
    650000   303.41015     -4997.1704      1242.0696     -1041.8768      7.3114571    
    655000   302.50611     -5055.8685      1260.8015     -1089.9273      10.878866    
    660000   292.9723      -5001.1425      1241.4599     -1139.7983     -5.4622534    
    665000   289.18393     -5039.3499      1231.4468     -1221.8961     -8.0704982    
    670000   304.24113     -5027.5029      1229.1761     -1077.6718      14.795254    
    675000   302.1539      -5053.6193      1194.4723     -1157.1569     -0.41990776   
    680000   300.2525      -5026.1088      1232.6262     -1108.4956     -15.836805    
    685000   308.37015     -5042.7685      1173.1216     -1112.0684      23.120709    
    690000   283.66152     -5030.9765      1183.0287     -1311.3245     -14.553714    
    695000   301.53641     -5027.2005      1223.055      -1107.6772     -14.059729    
    700000   305.73327     -5045.5247      1190.7332     -1120.793      -16.858644    
    705000   293.15006     -5047.4629      1225.6797     -1200.3093     -35.487149    
    710000   298.77632     -5086.0614      1206.8265     -1207.4486      6.6583541    
    715000   291.14447     -5082.4833      1184.4949     -1294.4494     -32.036959    
    720000   298.64967     -5067.1393      1185.6998     -1210.7857      12.22831     
    725000   306.30584     -5095.9428      1207.9425     -1148.8817      16.119003    
    730000   309.60467     -5082.2171      1225.8151     -1087.7839      5.3053171    
    735000   299.5448      -5103.9042      1183.684      -1241.5618      5.7872306    
    740000   302.49941     -5080.6097      1238.7585     -1136.7713     -3.4588024    
    745000   296.45468     -5090.4677      1199.3773     -1240.0651     -14.156896    
    750000   301.8653      -5105.2983      1197.6991     -1208.1899      75.578166    
    755000   303.74937     -5138.8386      1254.5744     -1168.0067      0.65136356   
    760000   306.10099     -5167.0684      1259.2746     -1170.5072     -3.1608316    
    765000   296.21961     -5156.4455      1229.9665     -1277.5559     -19.000172    
    770000   299.35741     -5199.1952      1219.1188     -1303.0937     -4.7428156    
    775000   301.47807     -5175.9445      1147.4194     -1332.5784     -12.4363      
    780000   300.52119     -5188.4855      1214.9299     -1286.1659     -19.88229     
    785000   302.49781     -5162.135       1293.953      -1163.1164      11.955343    
    790000   298.80608     -5175.7704      1201.1617     -1302.5562      57.273561    
    795000   293.10792     -5175.908       1232.3782     -1322.4327     -23.006956    
    800000   296.33076     -5175.7236      1213.6527     -1312.1537     -21.850518    
    805000   291.39694     -5183.1469      1208.4128     -1368.9372      0.16715489   
    810000   304.26056     -5185.2244      1220.7976     -1243.598       9.0183973    
    815000   303.85467     -5185.5691      1187.6278     -1280.7421      31.063641    
    820000   308.33765     -5180.1568      1227.2142     -1195.6547      25.846543    
    825000   309.78073     -5147.1508      1201.7464     -1175.2119      5.9281061    
    830000   285.85158     -5179.7839      1216.1079     -1407.4683     -0.61124309   
    835000   306.69488     -5181.9792      1207.9457     -1231.436       4.2207688    
    840000   300.38923     -5179.2926      1144.4013     -1348.6817      7.2897615    
    845000   296.55993     -5200.0919      1229.5113     -1318.6141      11.185401    
    850000   298.9775      -5208.2146      1259.4275     -1275.2016      3.1154916    
    855000   303.13357     -5178.4387      1197.1384     -1270.5495      3.0500946    
    860000   302.76037     -5143.7971      1159.5272     -1276.8564     -4.2948466    
    865000   298.87946     -5201.1581      1214.8062     -1313.6433     -15.676433    
    870000   298.42828     -5237.3371      1208.9717     -1359.6913      28.352971    
    875000   297.99464     -5208.8767      1225.1151     -1318.9653     -12.944405    
    880000   305.73256     -5222.1813      1180.6968     -1307.4924      10.218131    
    885000   303.10593     -5240.4469      1225.1869     -1304.7563     -42.204034    
    890000   296.26123     -5174.1234      1184.4685     -1340.3595      10.201716    
    895000   300.28304     -5205.1824      1264.498      -1255.4242      5.4527686    
    900000   307.46299     -5231.529       1250.9585     -1231.1042      21.021928    
    905000   291.45823     -5216.7511      1204.4671     -1405.9392      33.320022    
    910000   297.8247      -5226.657       1187.7663     -1375.6141      17.784756    
    915000   302.04606     -5220.4491      1209.3442     -1310.0791      25.509977    
    920000   304.03082     -5224.4327      1239.2168     -1266.4415     -9.0883009    
    925000   304.31898     -5196.7637      1176.6041     -1298.8084     -30.029711    
    930000   301.56112     -5218.4981      1177.1824     -1344.6265      8.7398574    
    935000   302.4473      -5232.3175      1191.4913     -1336.2123      1.5157117    
    940000   295.15178     -5222.9441      1191.0951     -1392.4748      0.77004144   
    945000   303.42043     -5245.5368      1191.931      -1340.2898     -32.919412    
    950000   301.53989     -5206.2064      1236.0712     -1273.6359      5.6221662    
    955000   298.6804      -5263.0664      1193.3884     -1398.7493      2.5503714    
    960000   297.90185     -5240.3285      1244.0596     -1332.3024     -12.974083    
    965000   296.77671     -5231.8761      1227.652      -1350.3192      60.90615     
    970000   299.03628     -5230.9159      1211.2378     -1345.5671     -33.443199    
    975000   297.09243     -5251.3586      1209.2563     -1385.3739     -11.640328    
    980000   296.63494     -5249.7921      1193.3789     -1403.7759     -2.2565384    
    985000   299.18731     -5287.7935      1145.3435     -1466.9884      7.7503733    
    990000   299.42888     -5286.7913      1213.822      -1395.3474     -3.2556678    
    995000   307.24618     -5271.5824      1224.3764     -1299.6784      2.0761029    
   1000000   306.54987     -5268.4521      1234.8821     -1292.2691      6.7779989    
   1005000   311.65187     -5256.4327      1244.3783     -1225.1294      4.341963     
   1010000   302.77729     -5320.4518      1188.9877     -1423.8994      18.209327    
   1015000   299.68863     -5283.4409      1225.1235     -1378.3728      26.677473    
   1020000   299.77405     -5290.5072      1166.5306     -1443.2681     -2.8209284    
   1025000   304.10126     -5306.7397      1172.9785     -1414.3569      44.123692    
   1030000   301.54304     -5261.9546      1174.7751     -1390.652       11.46772     
   1035000   300.04339     -5300.5404      1162.6048     -1454.8186      28.095781    
   1040000   298.16207     -5290.0443      1162.6465     -1461.1043     -21.648656    
   1045000   302.23593     -5284.7098      1195.2542     -1386.7319     -7.9795704    
   1050000   303.30087     -5274.42        1201.3703     -1360.8029      9.5759241    
   1055000   300.89157     -5294.9754      1208.9352     -1395.3384      3.7135947    
   1060000   300.82053     -5274.3271      1229.4365     -1354.824      -14.961168    
   1065000   305.37527     -5304.635       1223.04       -1350.7981     -14.900668    
   1070000   303.13435     -5311.3885      1230.1225     -1370.5082      12.992653    
   1075000   298.78007     -5286.4753      1190.1868     -1424.4686     -19.590888    
   1080000   308.246       -5322.3994      1163.8033     -1402.1278      5.9761013    
   1085000   301.63481     -5320.2923      1200.3324     -1422.6116     -8.0273807    
   1090000   302.04605     -5308.0181      1220.7548     -1386.2376     -11.630021    
   1095000   293.27381     -5330.181       1173.3166     -1534.2838      5.8277434    
   1100000   293.14524     -5344.1182      1199.6941     -1522.9933     -39.954971    
   1105000   304.17983     -5313.315       1211.4827     -1381.7254     -13.424487    
   1110000   302.07164     -5354.3696      1193.7919     -1459.3231      3.5551624    
   1115000   293.70604     -5321.2447      1210.038      -1484.7609      11.696047    
   1120000   299.75584     -5337.19        1251.5121     -1405.1322      19.312692    
   1125000   304.54086     -5357.1165      1215.5854     -1418.1957      21.254739    
   1130000   302.04008     -5335.0053      1219.2277     -1414.8053      30.199886    
   1135000   310.19564     -5329.9843      1164.4029     -1391.6785      27.685425    
   1140000   295.2521      -5348.8617      1246.7283     -1461.8621      29.908063    
   1145000   294.2393      -5368.5814      1172.7101     -1564.6569      9.107574     
   1150000   297.90865     -5372.0699      1205.0752     -1502.9674      1.7379523    
   1155000   304.3924      -5346.0051      1170.5529     -1453.4445      9.5668697    
   1160000   301.17427     -5350.6608      1214.1205     -1443.3105     -4.6373673    
   1165000   291.95776     -5360.8954      1201.0957     -1548.9879      12.809919    
   1170000   294.57543     -5363.4425      1224.7846     -1504.4377      2.8937746    
   1175000   300.92686     -5334.5602      1186.1051     -1457.4376      2.8176857    
   1180000   300.27701     -5343.9192      1186.4287     -1472.2844      18.562132    
   1185000   293.74897     -5332.681       1228.1653     -1477.6861      30.515876    
   1190000   303.04967     -5355.9367      1193.7903     -1452.1458      41.933331    
   1195000   291.65108     -5347.896       1217.8945     -1521.9321      12.901793    
   1200000   292.14433     -5359.3126      1172.3954     -1574.4368      4.1571527    
   1205000   299.93464     -5332.4381      1210.4222     -1439.8713     -3.7107015    
   1210000   298.89786     -5395.6574      1213.5142     -1509.27        16.984113    
   1215000   298.79756     -5420.4839      1201.7396     -1546.768      -1.8380322    
   1220000   299.01628     -5411.0244      1174.6944     -1562.3977     -4.5792838    
   1225000   310.56661     -5396.8401      1186.1873     -1433.4326      29.893489    
   1230000   303.59566     -5395.8003      1221.6945     -1459.2228      1.6038638    
   1235000   295.88049     -5388.6613      1204.6263     -1538.1443      13.521508    
   1240000   293.97228     -5405.9717      1180.0667     -1597.0783     -22.397921    
   1245000   299.43675     -5426.6129      1213.6986     -1535.2221      11.418846    
   1250000   310.76927     -5409.8869      1178.4204     -1452.434       6.0631069    
   1255000   296.66311     -5408.4464      1213.8795     -1541.6778      0.86354207   
   1260000   302.14367     -5408.6917      1243.122      -1463.6711     -2.5272902    
   1265000   302.90034     -5402.0613      1221.0522     -1472.3439      0.4060732    
   1270000   296.25871     -5416.0163      1185.3078     -1581.4356      35.41772     
   1275000   299.34794     -5429.6155      1197.8866     -1554.8308      28.900906    
   1280000   296.93682     -5432.0299      1197.3464     -1579.3467      9.576232     
   1285000   300.42287     -5405.7598      1205.2892     -1513.96        5.2874755    
   1290000   303.12376     -5400.4646      1186.7835     -1503.018      -4.6611285    
   1295000   296.46999     -5416.5633      1217.0217     -1548.3793      2.4596994    
   1300000   301.0663      -5460.6725      1209.0519     -1559.3562     -14.65098     
   1305000   293.91389     -5437.3444      1193.5653     -1615.4746      19.979176    
   1310000   296.05808     -5424.0993      1206.4304     -1570.1902     -10.79595     
   1315000   307.03228     -5428.7477      1174.5275     -1508.6055      39.252022    
   1320000   296.59741     -5430.2103      1197.5344     -1580.3743      16.536113    
   1325000   307.02535     -5457.5578      1190.1932     -1521.8119      20.0816      
   1330000   301.83889     -5442.1068      1186.0871     -1556.8466      5.1484235    
   1335000   296.95612     -5438.2147      1180.397      -1602.3083     -9.979927     
   1340000   300.19946     -5401.2497      1184.8932     -1531.8438      9.6119355    
   1345000   308.45948     -5436.0373      1175.4643     -1502.1956     -18.58168     
   1350000   296.30169     -5415.1693      1240.788      -1524.7241     -23.095971    
   1355000   299.80388     -5425.3237      1169.0582     -1575.2903      6.4723384    
   1360000   308.63429     -5445.1373      1162.2863     -1522.9104      2.5614408    
   1365000   301.97369     -5459.0939      1226.9122     -1531.8031     -7.0257325    
   1370000   304.73764     -5487.107       1229.6449     -1532.367      -16.829598    
   1375000   295.04675     -5481.829       1217.8433     -1625.5508     -40.329749    
   1380000   303.61452     -5460.7227      1177.8269     -1567.8442      3.0272996    
   1385000   299.49123     -5460.7613      1195.835      -1586.7469      13.059743    
   1390000   306.55162     -5476.1187      1222.7904     -1512.0119     -1.2291842    
   1395000   299.43823     -5458.6458      1195.1445     -1585.7958      16.45479     
   1400000   296.63713     -5501.1756      1229.8651     -1618.6537      9.7992516    
   1405000   305.69337     -5447.7021      1154.5173     -1559.5432      20.285032    
   1410000   297.06277     -5472.8434      1197.9267     -1618.4537      14.121631    
   1415000   293.86906     -5496.0465      1229.4307     -1638.7122     -19.682894    
   1420000   300.60881     -5500.964       1273.6883     -1539.1024     -6.2451351    
   1425000   297.40926     -5511.5695      1185.4327     -1666.5752     -12.7447      
   1430000   291.28481     -5508.0199      1187.6325     -1715.5934     -9.1333962    
   1435000   295.03844     -5503.7315      1162.6925     -1702.6783      11.260909    
   1440000   307.80692     -5514.8954      1234.7917     -1527.5618      10.439964    
   1445000   303.53244     -5508.1394      1185.6672     -1608.1546      4.724036     
   1450000   296.02945     -5513.779       1162.1733     -1704.383      -3.1139891    
   1455000   300.73294     -5499.0479      1210.4134     -1599.3512     -3.1717276    
   1460000   295.82407     -5506.7232      1199.585      -1661.7521      2.9406164    
   1465000   295.48949     -5511.3834      1214.7741     -1654.2151      19.040471    
   1470000   301.11203     -5472.6368      1234.6797     -1545.2838      0.017165331  
   1475000   300.67119     -5529.1013      1227.7974     -1612.5728      31.27557     
   1480000   295.7199      -5530.7275      1209.9248     -1676.3481      17.496267    
   1485000   298.81508     -5515.6218      1190.0523     -1653.4365      30.15934     
   1490000   300.09065     -5535.4673      1192.177      -1659.7505      2.081279     
   1495000   297.29633     -5533.5261      1207.7497     -1667.2247      64.127576    
   1500000   294.4658      -5514.887       1225.9749     -1655.6723     -6.0091527    
   1505000   299.47125     -5539.8767      1190.7737     -1671.1023      15.049843    
   1510000   299.08296     -5533.2764      1142.7819     -1715.966       31.980523    
   1515000   305.97815     -5559.45        1209.5285     -1613.7333      6.9063552    
   1520000   304.19335     -5561.0761      1202.6411     -1638.2072     -15.729875    
   1525000   302.4379      -5520.2096      1220.2929     -1595.387       16.046375    
   1530000   298.47244     -5561.037       1190.8215     -1701.1466      32.538917    
   1535000   294.77674     -5525.1423      1199.8207     -1689.3012      13.006872    
   1540000   304.26938     -5539.9992      1180.867      -1638.2245      9.1564463    
   1545000   301.82046     -5547.743       1177.6802     -1671.0544     -23.135942    
   1550000   296.72785     -5556.595       1209.6754     -1693.4515      2.3593786    
   1555000   304.91858     -5544.0791      1159.0252     -1658.3408      12.079253    
   1560000   304.4922      -5575.135       1216.39       -1635.8448     -37.403444    
   1565000   296.33094     -5510.1936      1168.0617     -1692.2132      33.363352    
   1570000   301.75118     -5557.812       1237.4938     -1621.9293     -19.381826    
   1575000   292.51225     -5560.6744      1144.5235     -1800.3805     -16.6756      
   1580000   300.62575     -5555.4632      1198.6451     -1668.4933      17.546561    
   1585000   303.89715     -5537.3849      1181.5008     -1638.305       8.7907075    
   1590000   311.25355     -5546.8392      1164.7614     -1598.7147      15.332244    
   1595000   300.358       -5530.6224      1169.759      -1674.933      -15.537213    
   1600000   295.3906      -5536.9453      1156.0281     -1739.4074      12.803599    
   1605000   301.7017      -5559.8923      1225.5978     -1636.3481      7.3947666    
   1610000   301.25315     -5541.2755      1197.639      -1649.7012      3.4501178    
   1615000   296.02985     -5541.8723      1143.6559     -1750.9901     -18.012868    
   1620000   307.37057     -5559.0111      1216.6111     -1593.7601      12.55384     
   1625000   299.59578     -5535.8058      1147.9103     -1708.7811      11.342704    
   1630000   297.05531     -5552.5495      1180.9002     -1715.253      -10.748718    
   1635000   297.95307     -5553.7693      1202.4534     -1686.8913     -0.7581181    
   1640000   297.75261     -5568.8077      1184.0323     -1722.1435      7.7944816    
   1645000   304.90562     -5612.5835      1182.6019     -1703.3844     -28.993886    
   1650000   305.01106     -5601.0553      1161.7843     -1711.7309     -7.7944233    
   1655000   296.63769     -5606.3819      1209.8352     -1743.8848     -0.65707804   
   1660000   306.73449     -5593.0627      1205.5763     -1644.5346     -8.6786434    
   1665000   299.76232     -5587.4827      1136.6113     -1770.2678     -33.311015    
   1670000   306.24714     -5581.2438      1185.5025     -1657.1476      38.513563    
   1675000   296.32565     -5583.6618      1144.4228     -1789.3676     -0.89497171   
   1680000   298.50775     -5583.529       1214.4366     -1699.7078      4.7888662    
   1685000   299.32905     -5559.4523      1187.9943     -1694.7288     -18.204081    
   1690000   299.03958     -5566.2074      1175.2538     -1716.813      -19.894497    
   1695000   296.52982     -5623.0372      1207.8964     -1763.4436     -17.780717    
   1700000   295.64057     -5588.4486      1131.82       -1812.8835     -11.683259    
   1705000   301.43285     -5623.538       1226.7987     -1701.1971     -17.853996    
   1710000   298.03452     -5602.2361      1131.0238     -1806.0595     -4.6484881    
   1715000   300.08855     -5575.7884      1205.7824     -1686.485      -11.276564    
   1720000   302.62781     -5611.5035      1191.2559     -1714.0196     -46.591984    
   1725000   293.77709     -5619.8608      1196.6013     -1796.1783      20.724537    
   1730000   306.01739     -5583.7532      1227.5939     -1619.6201     -42.185136    
   1735000   301.63152     -5590.9655      1207.8667     -1685.7799      16.521826    
   1740000   304.12215     -5602.7726      1173.1395     -1710.042      -27.223227    
   1745000   298.75277     -5585.2131      1171.1854     -1742.4518     -4.9622592    
   1750000   301.04156     -5605.1588      1203.0557     -1710.06        46.080558    
   1755000   302.41266     -5587.3868      1149.437      -1733.6458      2.1751261    
   1760000   298.36698     -5630.7087      1222.4181     -1740.1648      40.793053    
   1765000   304.22318     -5619.2464      1194.1026     -1704.6492     -17.739021    
   1770000   304.29788     -5621.1266      1220.6026     -1679.3615      33.729229    
   1775000   298.31692     -5573.2455      1225.7034     -1679.8639      20.423934    
   1780000   298.95423     -5583.3545      1139.0885     -1770.8887      11.947524    
   1785000   302.86546     -5579.616       1223.4395     -1647.8233     -14.508421    
   1790000   297.3958      -5607.7819      1204.1431     -1744.1976     -32.862288    
   1795000   300.824       -5604.426       1225.7142     -1688.6142      9.9005924    
   1800000   300.83047     -5623.0258      1119.3277     -1813.5427     -18.416613    
   1805000   315.50944     -5631.53        1197.8387     -1612.2701      35.648105    
   1810000   307.91869     -5598.1299      1187.8835     -1656.7051      6.1778147    
   1815000   307.09908     -5581.8935      1155.9389     -1679.7425     -10.20907     
   1820000   301.26539     -5656.6081      1136.0439     -1826.5195      27.510785    
   1825000   296.9838      -5657.3316      1189.1133     -1812.4614     -27.527939    
   1830000   306.14287     -5624.4495      1231.6585     -1655.1298      10.585702    
   1835000   293.97099     -5640.9982      1208.203      -1803.9802      33.059335    
   1840000   296.92375     -5669.6186      1208.9012     -1805.4976     -22.748644    
   1845000   299.48383     -5645.0488      1180.4265     -1786.5091      43.379977    
   1850000   298.67904     -5649.6551      1220.6698     -1758.0689     -9.5675397    
   1855000   301.4869      -5635.8034      1166.8085     -1772.9693      30.889667    
   1860000   303.96077     -5660.9398      1170.0027     -1772.7892      32.904533    
   1865000   294.59091     -5674.2926      1148.2545     -1891.6795      13.822388    
   1870000   303.00116     -5649.3939      1184.7046     -1755.1226      3.2817031    
   1875000   301.29764     -5615.6726      1176.9724     -1744.3671      19.337044    
   1880000   300.73807     -5679.6729      1143.7338     -1846.6099     -10.244106    
   1885000   299.80969     -5688.8223      1203.7538     -1804.0413      16.750709    
   1890000   295.19329     -5678.6596      1181.2432     -1857.671      -27.585302    
   1895000   307.37751     -5663.4594      1150.2941     -1764.4634      25.743344    
   1900000   307.56865     -5688.5229      1203.818      -1734.2937      26.712441    
   1905000   297.41528     -5629.3591      1177.699      -1792.0447      9.5864038    
   1910000   301.12707     -5651.5559      1156.7141     -1802.0341     -13.007303    
   1915000   302.11003     -5659.9704      1177.7178     -1780.6548     -27.102774    
   1920000   305.63434     -5654.1335      1175.2023     -1745.8174     -43.239467    
   1925000   302.80873     -5669.1396      1184.5687     -1776.725       12.01508     
   1930000   294.55966     -5645.3918      1210.0291     -1801.2836     -12.607974    
   1935000   306.64881     -5678.0344      1221.1867     -1714.6621     -40.503336    
   1940000   295.84035     -5650.4623      1143.9174     -1861.0133      11.538491    
   1945000   303.89932     -5681.7968      1132.7382     -1831.4601      10.017176    
   1950000   299.59021     -5696.7946      1179.4284     -1838.3017      27.851554    
   1955000   291.073       -5670.7077      1179.226      -1888.5818     -0.30527139   
   1960000   304.85153     -5696.1396      1213.9044     -1756.1217      10.902429    
   1965000   298.35053     -5706.1876      1221.2252     -1816.9836     -3.0301961    
   1970000   299.30246     -5658.8614      1139.4857     -1842.8844      1.3702123    
   1975000   300.54905     -5660.3099      1195.4089     -1777.2622     -47.76858     
   1980000   297.5446      -5690.4035      1215.5601     -1814.0716      8.4616243    
   1985000   297.25929     -5671.3232      1163.9241     -1849.1786      7.2458976    
   1990000   297.22409     -5677.4644      1228.7219     -1790.8368     -5.5477362    
   1995000   298.01831     -5644.6476      1207.0236     -1772.616       7.6242074    
   2000000   293.86156     -5719.712       1181.392      -1910.4835      23.275523    
   2005000   298.17754     -5661.6377      1212.9858     -1782.2201     -1.0049351    
   2010000   290.34604     -5694.5011      1224.2752     -1873.8267      17.799443    
   2015000   304.24501     -5678.6402      1176.8003     -1781.1501      10.312738    
   2020000   301.23843     -5690.9155      1214.2807     -1782.8311     -2.5866931    
   2025000   301.41964     -5670.5047      1157.4991     -1817.5816      27.365167    
   2030000   295.71316     -5687.5417      1185.3935     -1857.754       5.7540555    
   2035000   302.41672     -5676.8287      1177.7228     -1794.7655      8.4636003    
   2040000   297.46713     -5692.6916      1186.5228     -1846.0898      15.638232    
   2045000   298.72047     -5707.7303      1146.716      -1889.7274      10.800295    
   2050000   298.0536      -5690.2031      1182.4789     -1842.4006      1.6950642    
   2055000   294.1947      -5678.4827      1161.8452     -1885.8219     -10.919272    
   2060000   294.88165     -5703.735       1131.2159     -1935.5606     -8.7812784    
   2065000   307.78029     -5678.4794      1153.4695     -1772.7062      43.834454    
   2070000   306.61118     -5685.0095      1170.3622     -1772.7982     -21.559546    
   2075000   295.48831     -5744.6644      1222.9701     -1879.3107      9.7488094    
   2080000   301.8323      -5673.97        1221.5813     -1753.2745      38.845555    
   2085000   299.31476     -5694.7371      1178.2126     -1839.9232      10.281043    
   2090000   299.56349     -5710.4396      1208.4664     -1823.1476     -0.53284462   
   2095000   305.12578     -5701.1722      1203.8039     -1768.8023     -1.5076814    
   2100000   306.80973     -5684.1236      1174.9746     -1765.5244      19.649025    
   2105000   300.63314     -5699.7412      1148.7032     -1862.6471      1.0736253    
   2110000   295.7746      -5683.158       1191.476      -1846.7382     -4.2890868    
   2115000   303.52925     -5731.2942      1186.6194     -1830.3858      4.1606309    
   2120000   307.22026     -5686.688       1204.99       -1734.4022     -7.4096178    
   2125000   293.40562     -5729.7557      1176.2573     -1929.7391      19.992391    
   2130000   293.38976     -5715.6376      1238.4087     -1853.6115      15.895409    
   2135000   297.89951     -5711.2208      1109.9702     -1937.305      -1.313526     
   2140000   297.99016     -5695.4553      1162.1421     -1868.557       20.384543    
   2145000   296.03492     -5723.4578      1166.4219     -1909.7643      8.5218767    
   2150000   302.8283      -5728.3633      1165.6176     -1854.7248      7.4100166    
   2155000   297.05882     -5683.454       1165.7088     -1861.3175     -8.5668295    
   2160000   296.94779     -5717.8583      1189.5498     -1872.8737     -18.735291    
   2165000   295.8915      -5715.2619      1176.8587     -1892.4141      1.5018792    
   2170000   308.35195     -5711.8101      1140.9484     -1813.446      -21.535796    
   2175000   298.51474     -5715.557       1192.8425     -1853.2673     -22.879026    
   2180000   304.22479     -5725.7051      1162.6765     -1842.5197      5.3152841    
   2185000   298.74147     -5729.4445      1217.8758     -1840.0941      18.130258    
   2190000   305.01498     -5709.5977      1193.1332     -1788.8893      32.364207    
   2195000   297.74809     -5671.2808      1168.3895     -1840.2998     -13.274576    
   2200000   295.66475     -5741.1816      1188.7466     -1908.4736     -21.422759    
   2205000   297.31788     -5719.7896      1179.803      -1881.2422      10.683048    
   2210000   293.89553     -5709.2129      1158.255      -1922.8176     -14.716752    
   2215000   299.70042     -5750.9645      1160.9894     -1909.925       3.8902036    
   2220000   295.31845     -5699.4066      1222.0465     -1836.4955     -7.8988478    
   2225000   300.09748     -5730.9024      1167.4138     -1879.8879      3.5288136    
   2230000   308.00691     -5733.4364      1155.842      -1823.2641     -13.415148    
   2235000   299.6837      -5715.78        1168.4554     -1867.4241     -13.752238    
   2240000   305.12601     -5747.9096      1196.6001     -1822.7415      41.392811    
   2245000   305.30866     -5720.2881      1172.8659     -1817.2209     -19.885824    
   2250000   302.95263     -5712.4851      1180.2463     -1823.106       8.4775539    
   2255000   294.64037     -5697.5419      1177.9114     -1884.8296      5.3927338    
   2260000   295.20899     -5747.3087      1210.9897     -1896.4333     -4.9766759    
   2265000   304.81331     -5717.8005      1188.952      -1803.0768      25.262037    
   2270000   298.86583     -5732.5041      1223.226      -1836.6913     -20.885792    
   2275000   294.59009     -5693.9995      1159.1892     -1900.4589      24.547598    
   2280000   303.80916     -5680.7087      1179.6759     -1784.2407     -2.6853237    
   2285000   299.28381     -5754.3701      1166.6467     -1911.3989      11.050051    
   2290000   299.69336     -5726.196       1169.959      -1876.2501     -17.272216    
   2295000   302.11395     -5704.8678      1239.703      -1763.532      -34.993794    
   2300000   294.41937     -5696.0559      1165.3835     -1897.8477      5.1801707    
   2305000   299.51632     -5720.7464      1207.9258     -1834.4169     -6.5747347    
   2310000   296.63086     -5707.855       1126.9453     -1928.309      -0.43350535   
   2315000   307.81029     -5723.251       1221.4134     -1749.2656     -16.836683    
   2320000   292.65057     -5769.89        1165.1733     -1987.7094      12.671639    
   2325000   293.64561     -5704.0733      1217.7099     -1860.458      -7.3352877    
   2330000   299.32556     -5698.8085      1159.4788     -1862.6318     -21.328528    
   2335000   302.05663     -5724.0546      1145.4135     -1877.5207     -0.63624438   
   2340000   303.5123      -5694.1614      1194.1733     -1785.8506     -16.322001    
   2345000   296.35768     -5724.6327      1207.8158     -1866.6591      11.508375    
   2350000   296.46811     -5694.8391      1182.7414     -1860.9523      18.252079    
   2355000   296.20087     -5698.922       1185.5789     -1864.5876     -7.2484377    
   2360000   298.28092     -5714.4128      1203.2377     -1843.8189      20.955931    
   2365000   295.97819     -5726.1195      1167.6941     -1911.661       2.3212465    
   2370000   301.29663     -5723.8837      1157.871      -1871.6886      11.841883    
   2375000   288.59809     -5709.3602      1278.1117     -1850.4803      28.126256    
   2380000   295.91066     -5745.0571      1197.9359     -1900.9608     -12.015519    
   2385000   301.53738     -5757.2354      1232.4221     -1828.3363     -19.121549    
   2390000   303.9529      -5739.3348      1178.1507     -1843.1065      22.903811    
   2395000   296.96252     -5719.2198      1214.8639     -1848.7893      13.365035    
   2400000   305.85858     -5729.7881      1195.8792     -1798.7899     -4.9263976    
   2405000   305.71253     -5725.5328      1199.5146     -1792.2052     -31.151379    
   2410000   301.48283     -5756.7551      1235.2173     -1825.5487      0.018143418  
   2415000   300.13887     -5735.705       1177.2404     -1874.4938     -74.417082    
   2420000   301.8304      -5754.3273      1177.2119     -1878.0181     -5.9937293    
   2425000   301.007       -5714.8019      1129.156      -1893.9118      33.690005    
   2430000   298.28008     -5736.8493      1205.4384     -1864.062       8.0673861    
   2435000   301.8143      -5699.8028      1184.6734     -1816.1762      27.256765    
   2440000   300.58559     -5720.3155      1227.5839     -1804.766      -7.473501     
   2445000   303.37671     -5746.4712      1170.0511     -1863.495       58.529895    
   2450000   299.9061      -5742.5339      1171.5813     -1889.0633      24.980127    
   2455000   301.81376     -5727.2645      1142.7833     -1885.5327      5.2611088    
   2460000   300.58871     -5721.4818      1221.2607     -1812.2276      12.579914    
   2465000   302.66144     -5721.7136      1162.572      -1852.6129     -14.213357    
   2470000   302.60397     -5751.856       1165.2205     -1880.6206      1.7715846    
   2475000   300.1904      -5744.0004      1192.7291     -1866.8397     -24.245913    
   2480000   306.248       -5739.6607      1193.9109     -1807.1485      34.565937    
   2485000   300.00273     -5752.2261      1143.2355     -1926.2371     -19.991825    
   2490000   301.57394     -5750.6845      1178.1892     -1875.6914     -10.278556    
   2495000   303.51788     -5724.6101      1199.49       -1810.9326     -6.7791526    
   2500000   300.79887     -5783.9003      1160.3348     -1933.6926      14.238247    
   2505000   299.26115     -5728.8096      1191.3338     -1861.3538      55.039755    
   2510000   296.58522     -5743.7131      1181.0264     -1910.4941      8.0844118    
   2515000   306.03026     -5767.3217      1169.6933     -1860.9742      19.086719    
   2520000   298.99168     -5730.883       1192.7279     -1864.4429      32.681656    
   2525000   306.68258     -5735.0897      1185.2959     -1807.3063      26.996193    
   2530000   292.79807     -5750.2834      1239.2193     -1892.7379      11.9786      
   2535000   300.31234     -5756.2522      1209.4077     -1861.3223     -11.851225    
   2540000   297.23865     -5744.0263      1205.8698     -1880.1206      1.4284125    
   2545000   306.50721     -5736.7961      1207.5203     -1788.3565     -39.899182    
   2550000   302.03451     -5754.8526      1211.3688     -1842.5612      9.9069439    
   2555000   297.27629     -5713.1038      1170.0164     -1884.715      -18.600158    
   2560000   300.45891     -5731.6391      1170.1104     -1874.6958      13.936738    
   2565000   290.93542     -5772.0773      1143.2287     -2027.1789     -2.9579917    
   2570000   294.84141     -5752.3407      1228.4818     -1887.2602     -2.0317615    
   2575000   299.83886     -5754.6834      1148.9868     -1924.4085      10.121132    
   2580000   298.80218     -5753.6434      1233.6345     -1847.9912     -2.3709451    
   2585000   298.54659     -5742.6933      1197.4077     -1875.5535     -1.6095732    
   2590000   306.86111     -5798.696       1162.4388     -1892.1731      8.0432706    
   2595000   301.91682     -5770.9284      1195.4313     -1875.627       67.485705    
   2600000   307.15908     -5747.8118      1192.5989     -1808.4643     -18.531144    
   2605000   293.20625     -5749.6692      1193.9321     -1933.7607     -14.609147    
   2610000   294.88838     -5725.2848      1177.4493     -1910.8168     -26.461557    
   2615000   299.90553     -5755.7385      1175.5366     -1898.3177     -34.528022    
   2620000   298.24674     -5749.9664      1154.3633     -1928.5524     -10.204248    
   2625000   301.99956     -5729.893       1197.1768     -1832.1062      20.592524    
   2630000   299.36631     -5770.6209      1190.2607     -1903.2978     -21.718379    
   2635000   310.78743     -5780.0923      1184.6446     -1816.2529     -18.958716    
   2640000   301.78523     -5765.1638      1183.0127     -1883.4578     -3.0948051    
   2645000   300.09259     -5798.3871      1205.0571     -1909.773       16.574893    
   2650000   300.59086     -5752.7963      1165.6957     -1899.0879     -5.8920274    
   2655000   299.27651     -5786.3463      1198.6787     -1911.4084     -7.6127378    
   2660000   297.77286     -5757.5341      1186.6542     -1908.0669      9.4950833    
   2665000   304.56917     -5779.7273      1181.5776     -1874.5612      17.42571     
   2670000   304.67879     -5784.8876      1202.3925     -1857.9263      56.357568    
   2675000   308.18456     -5751.6783      1180.7657     -1814.9937      14.784862    
   2680000   295.42138     -5755.2317      1204.5373     -1908.9093     -3.3509697    
   2685000   295.68994     -5784.6628      1191.86       -1948.6162     -1.8838953    
   2690000   298.62351     -5762.561       1164.1494     -1927.9917      16.025804    
   2695000   292.37524     -5759.1066      1243.5784     -1900.983      -18.802272    
   2700000   302.88354     -5732.8862      1178.6671     -1845.7042      15.789019    
   2705000   304.96929     -5755.7625      1188.6197     -1839.9762     -9.0514881    
   2710000   298.01803     -5734.4089      1175.5705     -1893.833       12.054503    
   2715000   302.62695     -5778.5825      1184.2544     -1888.1077     -9.3008134    
   2720000   291.04793     -5758.5307      1172.5012     -1983.3537     -11.653095    
   2725000   300.67341     -5773.0629      1177.7346     -1906.5774      19.006912    
   2730000   297.22725     -5775.3418      1170.1272     -1947.2807      38.725006    
   2735000   297.83448     -5755.5986      1191.034      -1901.2006     -10.170682    
   2740000   300.1192      -5765.0399      1182.5645     -1898.6804     -25.223078    
   2745000   296.3395      -5784.8229      1162.438      -1972.3896     -24.070301    
   2750000   299.80125     -5755.634       1186.8609     -1887.8213      30.331085    
   2755000   297.76073     -5779.6523      1226.5578     -1890.39        33.077322    
   2760000   302.576       -5777.311       1212.9536     -1858.5926     -12.911348    
   2765000   298.84065     -5771.7599      1149.0263     -1950.372       6.9081118    
   2770000   292.27891     -5800.4184      1197.3856     -1989.349      -7.4993955    
   2775000   300.62121     -5759.3553      1186.3707     -1884.7004      27.527388    
   2780000   304.11552     -5786.0124      1161.8652     -1904.6154     -0.0079466495 
   2785000   293.09103     -5811.211       1184.9362     -2005.3288      2.2634808    
   2790000   303.27124     -5800.8104      1216.9468     -1871.8818     -18.717894    
   2795000   308.07545     -5791.6328      1151.7702     -1884.9193     -22.566049    
   2800000   291.01942     -5788.4845      1181.6632     -2004.4005     -12.173442    
   2805000   303.69167     -5806.7855      1173.0519     -1917.9921      6.8892476    
   2810000   291.29788     -5793.3032      1159.3919     -2029.0004      5.5328249    
   2815000   300.69167     -5802.8522      1230.9422     -1882.9958     -7.8474035    
   2820000   298.57976     -5761.7039      1197.4328     -1894.2425     -8.0187433    
   2825000   300.40041     -5786.4088      1185.4982     -1914.6009      17.557498    
   2830000   296.88896     -5811.6572      1173.0511     -1983.6973     -11.455795    
   2835000   295.26404     -5807.1446      1198.0053     -1968.7612     -7.0059771    
   2840000   307.16693     -5754.5227      1133.4552     -1874.2487      19.995649    
   2845000   303.7626      -5766.3997      1186.0956     -1863.9282      10.468576    
   2850000   300.33696     -5780.7555      1131.0351     -1963.9782      20.185647    
   2855000   301.04619     -5766.6725      1192.6961     -1881.8919      8.332896     
   2860000   298.47478     -5793.472       1206.2888     -1918.0933     -22.635879    
   2865000   295.10142     -5765.6431      1181.276      -1945.4432     -24.312193    
   2870000   296.89118     -5766.3619      1183.6695     -1927.7638      15.226867    
   2875000   302.20107     -5781.4892      1179.8746     -1899.2027      10.66553     
   2880000   306.58857     -5795.3004      1213.6528     -1840.0007     -2.1707418    
   2885000   300.60551     -5772.3889      1154.1014     -1930.1437      5.6239407    
   2890000   296.95312     -5780.3102      1206.0608     -1918.7669      3.0341312    
   2895000   295.68983     -5780.1574      1201.7459     -1934.2258     -7.5205478    
   2900000   295.17261     -5797.1807      1204.6611     -1952.9591     -27.793165    
   2905000   301.89994     -5774.5686      1150.4113     -1924.4382     -7.6538659    
   2910000   292.28866     -5787.2253      1182.9238     -1990.5306      11.263206    
   2915000   298.07388     -5781.8293      1204.9973     -1911.3271      3.5589051    
   2920000   303.4002      -5790.559       1234.0931     -1843.3307     -2.1475042    
   2925000   298.11846     -5802.2039      1193.9109     -1942.3894      33.726422    
   2930000   303.33158     -5744.474       1183.2225     -1848.73        10.620878    
   2935000   308.49053     -5787.945       1176.7151     -1852.5749     -36.593647    
   2940000   296.07528     -5744.7352      1210.8752     -1886.2274     -13.371672    
   2945000   306.04763     -5798.0385      1159.1631     -1902.0659      14.505651    
   2950000   294.88719     -5802.3759      1185.9168     -1979.451       2.2705647    
   2955000   297.56077     -5765.5848      1149.8711     -1954.7973     -9.7871952    
   2960000   307.40971     -5757.9197      1189.7891     -1819.1408      11.461157    
   2965000   299.7407      -5764.5155      1157.8116     -1926.2936     -12.887065    
   2970000   302.15025     -5828.9112      1212.4318     -1914.5219     -16.708906    
   2975000   299.30992     -5778.2306      1136.4399     -1965.2327      18.017163    
   2980000   296.29926     -5790.6797      1199.0146     -1942.0298      23.129316    
   2985000   296.97786     -5815.7325      1220.8063     -1939.2225      5.8943247    
   2990000   307.24722     -5782.6343      1195.7426     -1839.3549      10.838797    
   2995000   294.20548     -5797.6069      1202.318      -1964.3769      10.520303    
   3000000   305.72061     -5766.4636      1165.3041     -1867.2742      1.7377702    
   3005000   294.39365     -5776.8897      1173.6634     -1970.6316     -3.7954711    
   3010000   300.06987     -5757.0224      1192.6044     -1881.0641      10.969185    
   3015000   298.07392     -5796.9835      1190.5357     -1940.9426     -6.9177974    
   3020000   297.15995     -5793.3409      1209.1004     -1926.9084     -32.719269    
   3025000   304.56155     -5794.089       1179.0011     -1891.5675     -7.1760788    
   3030000   298.73074     -5820.4361      1171.1494     -1977.908       10.658851    
   3035000   307.2328      -5805.8643      1155.0837     -1903.3728     -38.075473    
   3040000   305.34064     -5805.7739      1221.0405     -1854.246       16.102515    
   3045000   307.11159     -5831.6183      1226.2779     -1859.0165      21.569309    
   3050000   306.0507      -5793.7558      1192.5503     -1864.3685      10.381389    
   3055000   291.45561     -5783.6995      1190.2667     -1987.1114      5.7490171    
   3060000   300.16013     -5810.5796      1189.7868     -1936.6318      24.364251    
   3065000   305.16588     -5786.7074      1134.4877     -1923.2951      6.3368751    
   3070000   302.41069     -5792.7529      1146.5361     -1941.9304     -2.7342156    
   3075000   297.9476      -5795.9065      1184.4003     -1947.1306      2.6166908    
   3080000   297.91341     -5777.3738      1236.2322     -1877.0717      5.9160056    
   3085000   298.09621     -5820.092       1188.1533     -1966.2342      16.862131    
   3090000   295.95976     -5793.6561      1219.3666     -1927.69       -3.7013514    
   3095000   297.75833     -5860.4681      1189.8094     -2007.9758     -17.044859    
   3100000   296.17203     -5811.4042      1177.3468     -1985.5597     -21.630727    
   3105000   298.82934     -5858.2113      1156.2627     -2029.6881      20.034548    
   3110000   296.41754     -5812.2045      1151.0621     -2010.4493      11.293109    
   3115000   292.67303     -5843.8413      1159.5573     -2067.0759      36.347841    
   3120000   304.40967     -5817.3145      1164.9407     -1930.2116      10.065107    
   3125000   298.68231     -5831.7232      1164.5285     -1996.249       1.3859747    
   3130000   295.25065     -5829.6607      1198.5809     -1990.8215     -9.6062988    
   3135000   297.60249     -5842.2287      1254.7182     -1926.221      -0.86174031   
   3140000   306.37172     -5823.6387      1214.4184     -1869.5126     -3.7912764    
   3145000   291.12587     -5832.5669      1161.6714     -2067.5228     -9.6315603    
   3150000   306.62716     -5828.9978      1176.8337     -1910.1722     -17.046806    
   3155000   297.49471     -5851.1769      1200.9303     -1989.9209      17.709635    
   3160000   299.64813     -5829.3335      1142.2681     -2007.4829      25.281847    
   3165000   308.22338     -5819.4482      1188.9212     -1874.261      -0.19285694   
   3170000   300.33019     -5830.889       1183.3851     -1961.8222      14.72713     
   3175000   298.49412     -5830.9032      1213.5598     -1948.0806      29.783838    
   3180000   299.54355     -5848.134       1162.8726     -2006.6141     -14.783262    
   3185000   301.73391     -5849.0135      1173.6215     -1977.1576     -19.244117    
   3190000   294.85538     -5838.916       1164.4437     -2037.7487     -7.0063309    
   3195000   299.06912     -5805.8021      1146.523      -1984.8745      7.8874547    
   3200000   302.7287      -5836.3736      1174.6419     -1954.6014     -26.663199    
   3205000   299.89005     -5841.1244      1156.4294     -2002.9491      8.5263435    
   3210000   301.9707      -5814.9136      1186.4763     -1928.0854      12.020972    
   3215000   292.73262     -5847.1619      1166.7428     -2062.6781      9.3187331    
   3220000   302.83822     -5813.575       1160.4035     -1945.0619      16.072202    
   3225000   299.61175     -5844.0162      1218.5283     -1946.2307     -3.9985419    
   3230000   300.04679     -5833.753       1195.9182     -1954.6874     -0.15211864   
   3235000   295.34178     -5789.6236      1205.4874     -1943.0629     -26.011166    
   3240000   310.95527     -5862.8188      1121.6823     -1960.4407     -3.8102267    
   3245000   296.59549     -5860.3899      1140.0693     -2068.0362      41.031397    
   3250000   291.34939     -5850.4438      1232.7154     -2012.3568      1.6808527    
   3255000   300.89036     -5831.2078      1157.2074     -1983.3094      18.709273    
   3260000   293.99435     -5872.1158      1203.4655     -2039.6263      43.701257    
   3265000   302.79538     -5842.5806      1185.4091     -1949.445       31.324895    
   3270000   299.67327     -5874.9339      1179.4446     -2015.682      -21.96035     
   3275000   299.02614     -5876.5429      1207.8829     -1994.6397      30.37484     
   3280000   297.17946     -5840.4109      1172.4176     -2010.4867     -2.4670638    
   3285000   304.20234     -5823.6024      1194.036      -1909.2583     -11.042335    
   3290000   301.8368      -5842.6149      1162.9367     -1980.5237      29.757311    
   3295000   293.15256     -5854.1194      1178.1269     -2054.4961      14.925507    
   3300000   306.15546     -5895.4625      1139.3392     -2018.3494     -13.989356    
   3305000   301.60147     -5863.6149      1184.5776     -1981.9872      4.6263755    
   3310000   298.82242     -5802.8158      1167.6092     -1963.0079      1.2857633    
   3315000   297.10769     -5837.6164      1149.3796     -2031.372      -10.148507    
   3320000   294.43752     -5858.2317      1158.9801     -2066.2646      21.761937    
   3325000   296.09734     -5860.5509      1174.1889     -2038.5322      11.98187     
   3330000   309.19148     -5835.4494      1159.4259     -1911.1003      33.126806    
   3335000   298.32612     -5841.0838      1206.3313     -1966.992       9.5076441    
   3340000   298.16033     -5850.0902      1198.9903     -1984.822      -1.8493695    
   3345000   293.34326     -5843.0537      1108.222      -2111.6301     -27.842452    
   3350000   300.37327     -5845.2694      1190.5223     -1968.6802     -13.80218     
   3355000   310.75413     -5847.0102      1140.4674     -1927.6457     -9.2356638    
   3360000   301.38232     -5848.4919      1160.282      -1993.1195      13.944818    
   3365000   294.21373     -5836.3311      1130.3355     -2075.0099      11.384324    
   3370000   299.97984     -5839.6314      1181.7248     -1975.3578      0.98720276   
   3375000   297.83601     -5857.972       1142.8636     -2051.7307     -16.081288    
   3380000   305.54288     -5850.8821      1190.5058     -1928.0805      24.44967     
   3385000   302.24071     -5841.9378      1151.8148     -1987.3566     -17.603059    
   3390000   313.19301     -5883.7329      1161.5353     -1921.4909      41.296051    
   3395000   303.39138     -5876.2828      1194.0136     -1969.2131      23.763616    
   3400000   312.77791     -5818.5063      1195.6792     -1825.8325     -7.6257123    
   3405000   303.53738     -5865.8711      1203.0434     -1948.4659      13.370813    
   3410000   306.75996     -5858.5688      1167.7615     -1947.6279      24.104135    
   3415000   298.6251      -5822.9746      1155.9619     -1996.5786      23.494322    
   3420000   298.35573     -5840.9708      1179.557      -1993.3886      5.2505238    
   3425000   302.84458     -5853.8743      1196.6649     -1949.0428     -23.951245    
   3430000   304.56761     -5848.347       1205.7569     -1919.0155     -25.80233     
   3435000   300.14064     -5847.0462      1172.5878     -1990.4717     -9.7536803    
   3440000   298.28441     -5870.3958      1165.8418     -2037.1665      15.303437    
   3445000   297.56653     -5853.2822      1218.1689     -1974.1454      11.376621    
   3450000   299.94063     -5879.6003      1198.8161     -1998.5861      3.3592817    
   3455000   299.61548     -5827.6057      1175.4056     -1972.9096     -26.597471    
   3460000   298.8109      -5854.4168      1183.9963     -1998.325      -10.511368    
   3465000   299.56503     -5863.3136      1173.8938     -2010.5804      6.4986358    
   3470000   288.37111     -5862.5976      1195.9191     -2087.94        13.774283    
   3475000   296.21987     -5858.4334      1170.3211     -2039.1868      13.399687    
   3480000   301.74606     -5824.5594      1156.2166     -1969.9997     -33.382776    
   3485000   301.99145     -5846.8807      1194.3867     -1951.9565      6.9298671    
   3490000   303.43304     -5866.2438      1184.0962     -1968.7188     -16.571006    
   3495000   303.36036     -5888.1141      1213.4135     -1961.9217      14.139803    
   3500000   295.45173     -5879.3411      1162.2925     -2074.9922      8.4838474    
   3505000   297.98508     -5876.4611      1159.8833     -2051.8671     -1.1138458    
   3510000   304.94659     -5857.4723      1156.2867     -1974.222       3.3007192    
   3515000   301.93529     -5891.7388      1209.621      -1982.0826     -7.9590505    
   3520000   295.59135     -5858.2953      1171.5974     -2043.3929      40.252538    
   3525000   311.09881     -5860.1343      1200.5636     -1877.5914     -24.317844    
   3530000   305.22365     -5846.755       1175.5463     -1941.7675      43.562672    
   3535000   295.33874     -5894.2452      1179.8897     -2073.3095      15.403494    
   3540000   302.42547     -5878.1975      1210.8858     -1962.893       3.108157     
   3545000   298.25143     -5910.4757      1205.1676     -2038.2154     -4.007022     
   3550000   306.86089     -5866.4235      1166.8323     -1955.5092      16.736504    
   3555000   307.00548     -5875.4685      1163.6473     -1966.4461     -9.0519184    
   3560000   297.35878     -5898.9139      1196.1984     -2043.6054      9.314524     
   3565000   302.26634     -5896.6224      1161.7219     -2031.9049      19.70334     
   3570000   295.98076     -5873.2659      1180.095      -2046.3836      32.39311     
   3575000   299.55075     -5868.969       1159.8194     -2030.438      -36.946908    
   3580000   298.07748     -5860.5931      1208.4474     -1986.6086      2.2043261    
   3585000   297.3537      -5873.1017      1166.6494     -2047.3876     -2.1057638    
   3590000   298.83909     -5874.0688      1130.6958     -2071.0253      31.436114    
   3595000   301.24734     -5874.9289      1154.8996     -2026.146      -2.3997187    
   3600000   293.43821     -5881.6682      1184.1691     -2073.4485     -4.350184     
   3605000   299.56678     -5872.8433      1177.8966     -2016.0917      1.1380541    
   3610000   295.86374     -5845.9658      1173.9275     -2026.2975      2.6959608    
   3615000   300.01223     -5872.2266      1160.829      -2028.5592      36.425729    
   3620000   308.8705      -5887.6086      1142.8858     -1982.6699     -10.490394    
   3625000   306.28217     -5847.0353      1169.0569     -1939.0715     -36.892396    
   3630000   306.26787     -5882.1384      1202.1103     -1941.249       1.6068091    
   3635000   303.26454     -5888.7789      1168.8686     -2007.9884     -6.8153056    
   3640000   301.59722     -5909.1874      1183.6512     -2028.5241     -13.551263    
   3645000   292.55846     -5863.4846      1206.8169     -2040.4841     -22.730564    
   3650000   299.16629     -5891.1198      1187.1191     -2028.7271     -19.866464    
   3655000   296.41929     -5881.5335      1142.6913     -2088.1334     -17.45451     
   3660000   302.56118     -5877.3146      1131.5578     -2040.1246     -10.78908     
   3665000   294.38845     -5892.7079      1148.0665     -2112.0933     -12.172666    
   3670000   299.97181     -5877.9229      1160.7855     -2034.6604     -25.391608    
   3675000   297.12442     -5871.287       1186.6612     -2027.6115     -13.910977    
   3680000   305.15525     -5881.4858      1140.2718     -2012.3846      15.02233     
   3685000   298.01883     -5844.4836      1206.8362     -1972.6348      19.415592    
   3690000   303.0738      -5893.646       1183.6301     -1999.7996      56.390604    
   3695000   299.81923     -5888.5522      1169.6107     -2037.8289      27.860996    
   3700000   301.58923     -5899.1553      1172.145      -2030.0696     -26.370737    
   3705000   306.34184     -5902.9642      1171.1847     -1992.339       35.457808    
   3710000   303.87925     -5888.8236      1115.3889     -2056.0157      0.38888697   
   3715000   291.20401     -5871.6678      1130.7402     -2136.8561     -13.886268    
   3720000   296.5493      -5888.0404      1172.4154     -2063.7537      15.243336    
   3725000   302.56174     -5908.0319      1199.3041     -2003.0906      64.089639    
   3730000   304.6868      -5874.9303      1141.838      -2008.4519      27.857149    
   3735000   303.67668     -5904.2172      1178.2318     -2010.3779      2.0983251    
   3740000   299.14907     -5845.0272      1201.6577     -1968.2498     -21.829731    
   3745000   300.98105     -5928.8541      1168.7649     -2068.5871      21.034298    
   3750000   302.12334     -5870.3919      1199.4501     -1969.225      -1.7745485    
   3755000   294.83868     -5870.9524      1170.3989     -2063.9792     -4.7557567    
   3760000   295.93631     -5864.878       1207.8563     -2010.632       43.622036    
   3765000   303.14673     -5858.7951      1159.2985     -1988.6281      40.77159     
   3770000   299.42763     -5919.5188      1205.1091     -2036.799       2.6279231    
   3775000   300.67215     -5882.6506      1188.787      -2005.124      -37.870399    
   3780000   298.65978     -5864.4568      1162.8824     -2030.8302      4.8201232    
   3785000   302.27721     -5878.9055      1134.1386     -2041.6741     -15.00847     
   3790000   304.88227     -5864.8594      1187.6413     -1950.8298      40.388722    
   3795000   308.51112     -5890.4044      1119.1195     -2012.4458     -25.640134    
   3800000   303.99109     -5899.5961      1210.8657     -1970.3114      18.527123    
   3805000   299.71552     -5869.6947      1200.8879     -1988.6217      31.116017    
   3810000   300.10983     -5877.8449      1152.5977     -2041.5361     -9.8490439    
   3815000   299.97069     -5854.6662      1158.0879     -2014.1114      6.894347     
   3820000   306.22762     -5883.5839      1205.8333     -1939.3315      30.797596    
   3825000   302.59764     -5876.4596      1180.6505     -1989.8509      42.086233    
   3830000   301.98101     -5884.1658      1157.9448     -2025.7769     -12.786603    
   3835000   302.86649     -5899.7022      1218.9544     -1972.3854      13.563547    
   3840000   302.80803     -5890.762       1209.8384     -1973.0839     -16.249581    
   3845000   300.28376     -5877.3246      1170.686      -2021.3721     -15.211162    
   3850000   299.79873     -5887.2669      1196.7067     -2009.631      -9.9202831    
   3855000   310.05996     -5903.4618      1177.2438     -1953.5286     -7.5615665    
   3860000   302.48238     -5861.5909      1186.7261     -1969.9372      3.6715551    
   3865000   300.85309     -5891.1504      1127.3947     -2073.3979      17.230149    
   3870000   293.74793     -5886.495       1209.9908     -2049.6839     -8.309846     
   3875000   300.01498     -5894.1765      1174.4304     -2036.8831     -0.42120515   
   3880000   305.06191     -5883.4887      1187.9724     -1967.5214      62.779743    
   3885000   302.90668     -5909.5112      1178.5953     -2022.1941      19.012909    
   3890000   295.10767     -5869.0549      1189.5617     -2040.5135     -15.534691    
   3895000   305.98312     -5892.8695      1158.382      -1998.2548     -2.8355845    
   3900000   301.03956     -5887.7399      1148.3534     -2047.3612     -6.2990476    
   3905000   301.99277     -5873.5259      1137.6264     -2035.3503      8.3492364    
   3910000   296.33007     -5896.5396      1168.3836     -2078.245       12.160191    
   3915000   301.62455     -5881.6335      1166.1683     -2018.2088     -1.8211786    
   3920000   296.41785     -5856.0074      1203.351      -2001.9605      7.6460154    
   3925000   295.29414     -5882.1401      1164.2348     -2077.258      -10.828784    
   3930000   299.43564     -5887.6346      1193.6029     -2016.3495     -7.7619076    
   3935000   303.63285     -5902.1043      1167.5556     -2019.3332     -19.01479     
   3940000   304.05163     -5874.4371      1189.5554     -1965.9212      12.428695    
   3945000   299.87341     -5892.0707      1188.1868     -2022.2869      10.514128    
   3950000   301.16332     -5863.3473      1172.611      -1997.6044      24.341056    
   3955000   298.8748      -5902.5111      1142.8163     -2087.0278      21.996835    
   3960000   302.30511     -5884.9534      1162.7044     -2018.9066      17.222656    
   3965000   298.27991     -5868.2525      1170.1666     -2030.7387      14.618489    
   3970000   293.62855     -5855.6224      1162.7254     -2067.1442     -35.151052    
   3975000   300.31518     -5847.5109      1214.4465     -1947.517      -23.340213    
   3980000   300.55614     -5821.4088      1161.8466     -1971.8599      10.572412    
   3985000   304.65275     -5906.9032      1166.9529     -2015.6144     -19.562098    
   3990000   302.56207     -5876.6499      1189.6411     -1981.3687     -31.542995    
   3995000   302.45501     -5906.3652      1180.1575     -2021.5249      1.4937165    
   4000000   302.87311     -5904.4984      1166.6192     -2029.4575      16.768578    
   4005000   296.38782     -5912.3089      1183.5968     -2078.2847      0.025998583  
   4010000   302.1104      -5885.2985      1211.3712     -1972.3261      3.5707572    
   4015000   306.47205     -5917.2597      1167.118      -2009.5368     -22.237447    
   4020000   298.8422      -5921.7772      1171.3395     -2078.0622     -10.255264    
   4025000   301.25885     -5909.3282      1137.3785     -2077.9634      12.454853    
   4030000   293.96098     -5921.5891      1191.9782     -2100.8853      12.300184    
   4035000   297.6446      -5931.1277      1232.7692     -2036.6925     -0.8979926    
   4040000   300.99298     -5906.8504      1188.2406     -2027.001       16.612977    
   4045000   292.88317     -5905.8961      1234.7015     -2052.1073     -6.4608604    
   4050000   294.98301     -5920.4645      1192.024      -2090.5755      49.816167    
   4055000   295.99471     -5921.5568      1200.7055     -2073.9393      21.126918    
   4060000   294.64317     -5941.6066      1146.2551     -2160.5256     -4.6005506    
   4065000   303.96139     -5896.6696      1180.5625     -1997.9536     -22.603784    
   4070000   294.47565     -5947.966       1227.2948     -2087.3433      20.722516    
   4075000   304.24633     -5922.15        1232.3502     -1969.0983      14.988469    
   4080000   304.86187     -5936.6821      1158.2593     -2052.2168     -9.7052857    
   4085000   304.31138     -5901.8833      1166.5007     -2014.0994     -11.257898    
   4090000   302.73895     -5887.9819      1203.8082     -1976.9517      26.890066    
   4095000   292.1391      -5945.652       1186.3939     -2146.8246      0.5960085    
   4100000   306.02902     -5911.8678      1183.129      -1992.0957     -7.8261595    
   4105000   292.1424      -5940.7211      1201.7184     -2126.5397      2.0461056    
   4110000   298.42703     -5912.6345      1193.3514     -2050.6202      17.704216    
   4115000   294.56618     -5933.9632      1128.9923     -2170.8334      54.138009    
   4120000   293.39202     -5922.1266      1205.3031     -2093.1858      11.217625    
   4125000   302.57992     -5922.0869      1217.2421     -1999.045       12.347427    
   4130000   306.37642     -5918.8219      1164.8038     -2014.2685     -11.7244      
   4135000   297.4532      -5948.9049      1099.8839     -2189.0665      8.3703353    
   4140000   298.53708     -5925.6361      1177.5904     -2078.3986     -14.358937    
   4145000   305.70709     -5896.5309      1227.235      -1935.5316      20.558086    
   4150000   302.87863     -5933.4286      1161.4748     -2063.4829     -10.260327    
   4155000   292.30142     -5953.0801      1175.0114     -2164.1836      18.984619    
   4160000   301.1739      -5920.59        1135.5082     -2091.8553     -24.837925    
   4165000   299.65839     -5890.8614      1159.6988     -2051.4884     -8.4947692    
   4170000   299.32801     -5925.6735      1178.9858     -2069.9678     -20.542216    
   4175000   302.4488      -5904.325       1168.8816     -2030.8162      10.334139    
   4180000   299.02987     -5899.8873      1201.2184     -2024.6151     -0.78250878   
   4185000   301.87689     -5919.9728      1154.165      -2066.2947     -32.83644     
   4190000   302.99821     -5923.5125      1245.3134     -1968.6587     -6.1669234    
   4195000   305.5397      -5905.696       1191.453      -1981.9756      5.3088269    
   4200000   299.90378     -5929.0013      1190.7856     -2056.3472     -2.3199594    
   4205000   305.37378     -5915.5544      1203.5362     -1981.2346     -19.872676    
   4210000   299.85847     -5923.7819      1173.097      -2069.2215     -12.211452    
   4215000   302.77029     -5909.2299      1224.494      -1977.2337      18.804652    
   4220000   299.2574      -5926.6546      1166.4391     -2084.1271     -9.0180451    
   4225000   297.30115     -5939.9655      1147.9197     -2133.451      -16.261896    
   4230000   296.17068     -5934.8821      1192.0411     -2094.3554     -12.838434    
   4235000   299.98521     -5926.1693      1170.6486     -2072.9238      39.268298    
   4240000   295.00909     -5913.8714      1226.6976     -2049.0756      12.947089    
   4245000   296.75696     -5929.4806      1161.6752     -2114.077       8.9278165    
   4250000   299.90517     -5945.0131      1169.7007     -2093.4314     -0.18900224   
   4255000   300.91789     -5944.1923      1184.5312     -2068.7239     -20.677547    
   4260000   296.98687     -5919.4533      1173.8339     -2089.8351     -41.995017    
   4265000   304.13248     -5917.8969      1187.8078     -2010.4057     -25.640928    
   4270000   295.78992     -5922.7114      1189.523      -2088.1077     -3.6867142    
   4275000   299.10106     -5915.8422      1199.4564     -2041.6955      2.0174882    
   4280000   301.69105     -5928.3342      1152.0162     -2078.4668      20.759555    
   4285000   308.03722     -5925.011       1155.5796     -2014.83        6.3301144    
   4290000   298.5442      -5926.8337      1168.8898     -2088.2332     -3.1634351    
   4295000   299.13487     -5932.8433      1192.7304     -2065.1202     -12.281778    
   4300000   291.68393     -5929.8131      1200.3811     -2121.0689     -13.457821    
   4305000   298.81165     -5896.9786      1147.7299     -2077.1464      45.570099    
   4310000   297.42509     -5923.6068      1158.2631     -2105.6406     -20.152494    
   4315000   302.1582      -5943.232       1194.6238     -2046.5796      29.092516    
   4320000   299.35977     -5897.6896      1203.2885     -2017.3972     -20.638773    
   4325000   297.66644     -5893.197       1196.1846     -2035.1511     -2.3736926    
   4330000   300.30382     -5892.7886      1225.7461     -1981.5965      3.9017567    
   4335000   300.61659     -5920.617       1157.5824     -2074.7918      25.869001    
   4340000   295.93754     -5892.5271      1182.2193     -2063.907       19.874084    
   4345000   293.25848     -5937.4958      1169.0337     -2146.0186     -5.0934912    
   4350000   312.18386     -5934.779       1175.3539     -1967.7428      3.4943911    
   4355000   298.33256     -5912.1709      1134.1791     -2110.1737      22.337986    
   4360000   295.31779     -5910.7809      1181.9431     -2087.9791     -2.3861982    
   4365000   292.10373     -5921.0657      1131.5582     -2177.3902     -19.558323    
   4370000   291.61375     -5920.464       1194.2329     -2118.4956      3.9593638    
   4375000   299.61171     -5901.8846      1140.1038     -2082.524       13.270599    
   4380000   300.68865     -5919.6642      1147.8799     -2082.897       9.9869213    
   4385000   296.10171     -5931.4375      1235.4427     -2048.1259     -18.225311    
   4390000   306.88609     -5936.7126      1148.9856     -2043.4195      16.347908    
   4395000   296.94661     -5906.2656      1164.7448     -2086.0965      41.03574     
   4400000   301.78654     -5897.006       1149.3579     -2048.943       3.4774766    
   4405000   294.652       -5907.3643      1186.0473     -2086.412      -28.704081    
   4410000   297.69769     -5911.4378      1213.3399     -2035.9571     -29.915364    
   4415000   300.74618     -5945.2693      1133.7919     -2122.0757      4.2238293    
   4420000   299.80974     -5941.6583      1182.862      -2077.7686      8.3661827    
   4425000   295.19675     -5901.0514      1155.7394     -2105.5357     -7.5984014    
   4430000   300.80382     -5887.9256      1128.4352     -2069.5733     -12.997138    
   4435000   304.76448     -5900.749       1140.3246     -2035.0893      12.98047     
   4440000   301.97234     -5931.9395      1142.5801     -2088.9928     -1.4510063    
   4445000   305.75488     -5949.3568      1182.9961     -2032.169       16.209627    
   4450000   304.39033     -5903.1528      1182.2938     -1998.8697     -19.397896    
   4455000   305.261       -5869.1235      1160.3211     -1979.0273      22.383494    
   4460000   303.77578     -5902.1611      1134.3802     -2051.2872     -7.9759479    
   4465000   301.40981     -5917.4345      1217.3724     -2004.7259      8.0615528    
   4470000   299.11754     -5929.8636      1166.3428     -2088.6831      10.761965    
   4475000   292.46847     -5932.048       1171.5078     -2145.1613     -4.839641     
   4480000   294.84426     -5926.3534      1220.4371     -2069.2922      29.241311    
   4485000   298.39176     -5902.9832      1167.5533     -2067.0824     -17.48461     
   4490000   293.06945     -5952.7986      1218.3597     -2113.6858     -37.44416     
   4495000   299.7903      -5892.7421      1172.4527     -2039.4356     -7.0689396    
   4500000   291.34059     -5924.8996      1133.6845     -2185.9223      38.58364     
   4505000   305.96135     -5913.4918      1150.6601     -2026.7937      13.139601    
   4510000   303.27048     -5906.6152      1151.8821     -2042.758       13.288618    
   4515000   306.53731     -5901.3613      1194.022      -1966.1508      12.746324    
   4520000   292.72423     -5907.7852      1194.3026     -2095.8166     -7.4799642    
   4525000   300.3978      -5923.4079      1188.4594     -2048.6621      18.575362    
   4530000   299.52256     -5898.178       1159.0735     -2060.6449      14.279452    
   4535000   293.43141     -5900.6652      1203.6859     -2072.9894      8.6872001    
   4540000   299.10174     -5923.0929      1147.296      -2101.1005      14.618042    
   4545000   293.01001     -5930.3418      1157.9784     -2152.1419      11.083105    
   4550000   297.54238     -5924.363       1172.7392     -2090.8718      42.18059     
   4555000   294.21559     -5910.5821      1194.0008     -2085.579       20.230152    
   4560000   302.84469     -5934.6058      1134.2211     -2092.2173     -24.163243    
   4565000   303.24626     -5913.4905      1139.8736     -2061.8584     -22.926802    
   4570000   308.39935     -5926.308       1177.2417     -1991.2267      26.642407    
   4575000   301.06308     -5902.5358      1194.88       -2015.4203     -25.81221     
   4580000   305.30765     -5921.7325      1170.1933     -2021.3468      1.3010483    
   4585000   300.25562     -5911.5303      1230.4771     -1996.0383      22.021141    
   4590000   302.08256     -5858.9699      1189.9287     -1967.689       30.965237    
   4595000   292.91953     -5904.1914      1161.2029     -2123.5761     -12.223487    
   4600000   306.26663     -5903.4374      1123.2788     -2041.3906      25.948305    
   4605000   298.52581     -5907.0739      1169.5604     -2067.9674     -1.4198648    
   4610000   296.21775     -5899.788       1186.5424     -2064.339      -18.520004    
   4615000   297.09707     -5898.7674      1192.2175     -2049.7802      17.434993    
   4620000   298.65549     -5933.0694      1140.6278     -2121.7357     -12.90393     
   4625000   302.8701      -5895.2835      1164.3391     -2022.5496      0.20566425   
   4630000   302.46753     -5876.096       1165.8572     -2005.444      -8.824555     
   4635000   301.45855     -5903.954       1163.4945     -2044.6875      2.165734     
   4640000   297.55884     -5901.744       1174.8117     -2066.0332     -4.7918129    
   4645000   306.37037     -5886.4058      1171.8096     -1974.9005      6.243898     
   4650000   300.05359     -5914.9899      1157.4137     -2074.368       4.7476231    
   4655000   306.38758     -5902.1545      1188.6805     -1973.6245      19.884986    
   4660000   297.26439     -5884.2819      1134.6311     -2091.3848      12.167767    
   4665000   298.15015     -5881.8811      1180.5361     -2035.1581      40.488587    
   4670000   302.05194     -5888.3152      1140.2602     -2046.9766     -11.805066    
   4675000   303.01688     -5902.0461      1149.1974     -2043.1413     -20.056539    
   4680000   294.3481      -5883.851       1194.7684     -2056.8952     -2.5173612    
   4685000   288.51901     -5917.6603      1161.0568     -2176.5425     -0.61648231   
   4690000   291.5873      -5901.0391      1174.3786     -2119.1615      4.7325317    
   4695000   297.36719     -5889.6081      1146.368      -2084.0548      4.4029039    
   4700000   297.71963     -5895.4122      1173.8382     -2059.2371      9.5074253    
   4705000   298.91988     -5904.6706      1246.9107     -1984.6898      3.1663396    
   4710000   295.27437     -5923.6319      1199.4025     -2083.7591      6.5344703    
   4715000   303.44971     -5938.9535      1177.1417     -2048.234       2.077933     
   4720000   296.49943     -5897.9985      1180.25       -2066.3231      58.629856    
   4725000   295.3114      -5894.6065      1153.7607     -2100.0442      9.4251333    
   4730000   299.90405     -5906.3441      1188.1657     -2036.3073     -2.9891851    
   4735000   294.15179     -5935.2558      1151.2086     -2153.6154     -30.046126    
   4740000   300.59401     -5890.5565      1227.148      -1975.3675      2.4566888    
   4745000   310.65655     -5890.6511      1174.4586     -1938.1681      26.843764    
   4750000   303.05162     -5931.4616      1176.7451     -2044.6984      7.0946498    
   4755000   295.99312     -5905.3349      1176.498      -2081.9391     -4.3075683    
   4760000   296.62421     -5919.3861      1181.7461     -2085.0988     -4.7178351    
   4765000   301.7527      -5913.4944      1147.4699     -2067.6221      15.196115    
   4770000   305.13921     -5901.6301      1174.6207     -1998.3233      11.744715    
   4775000   306.69239     -5899.7946      1199.0971     -1958.1223     -1.6783462    
   4780000   297.83487     -5960.0499      1170.5914     -2126.0909      24.706778    
   4785000   303.52959     -5929.7555      1153.9685     -2061.4949     -31.165855    
   4790000   307.64364     -5940.1952      1208.5162     -1980.5972     -14.602442    
   4795000   304.77362     -5906.3521      1220.0622     -1960.8731     -5.1805419    
   4800000   301.65191     -5938.3328      1162.0445     -2078.7872      10.843749    
   4805000   298.50407     -5926.6752      1183.6941     -2073.6293     -29.368196    
   4810000   307.94963     -5927.6572      1147.3338     -2026.5053     -24.161001    
   4815000   295.68333     -5935.5943      1174.8997     -2116.567      -14.531809    
   4820000   293.83066     -5942.0073      1171.6734     -2142.7738     -27.128203    
   4825000   305.08013     -5961.9795      1185.1062     -2048.7155     -3.4581035    
   4830000   301.22662     -5958.3391      1237.7483     -2026.8929     -6.8564025    
   4835000   304.24096     -5916.2404      1165.2434     -2030.3435      2.7195545    
   4840000   303.66275     -5943.3664      1188.4335     -2039.45       -47.721706    
   4845000   303.34372     -5961.2194      1181.1451     -2067.4443     -2.6748859    
   4850000   301.52766     -5941.3672      1178.9673     -2066.0099      25.873388    
   4855000   300.90986     -5954.0343      1181.542      -2081.627      -15.326894    
   4860000   295.6083      -5944.5906      1144.3238     -2156.8103      15.162201    
   4865000   297.50698     -5965.4423      1163.3297     -2141.6772      1.1894381    
   4870000   301.33184     -5944.889       1162.9228     -2087.3272      12.298372    
   4875000   301.00937     -5920.7105      1171.2242     -2057.731      -4.4414039    
   4880000   297.63508     -5942.2556      1206.2637     -2074.411       19.545015    
   4885000   300.7401      -5904.9219      1194.7914     -2020.7831      15.916515    
   4890000   302.90709     -5951.0513      1230.8406     -2011.4852     -1.148177     
   4895000   299.04066     -5942.5887      1178.2218     -2090.2167     -2.5114828    
   4900000   303.92555     -5935.0941      1171.2204     -2046.0407      12.565373    
   4905000   300.97417     -5919.4589      1184.4297     -2043.5887     -35.560869    
   4910000   301.80198     -5911.9867      1151.8686     -2061.2749      34.742204    
   4915000   296.74897     -5939.9002      1130.1741     -2156.0692      42.914372    
   4920000   295.07814     -5923.6475      1172.5605     -2112.3714      6.1354227    
   4925000   306.09736     -5951.3798      1169.4274     -2044.6982      0.20091466   
   4930000   297.72271     -5916.8724      1206.022      -2048.4858      47.088976    
   4935000   301.35585     -5950.4193      1138.6149     -2116.9507     -16.704514    
   4940000   302.04117     -5944.4621      1199.4272     -2044.0528      16.220552    
   4945000   291.97641     -5945.0312      1177.6849     -2156.3677      28.53967     
   4950000   306.63067     -5929.4501      1205.6464     -1981.7803      10.937033    
   4955000   303.32557     -5962.3676      1205.4534     -2044.4465     -10.275335    
   4960000   304.73615     -5933.4176      1180.9497     -2027.3861      42.928606    
   4965000   296.25871     -5938.3623      1139.9132     -2149.1762      28.276832    
   4970000   308.05263     -5942.4676      1148.2698     -2039.4586     -8.0062943    
   4975000   297.90922     -5941.0922      1206.304      -2070.7558     -2.0733062    
   4980000   301.34566     -5920.8323      1201.4846     -2024.5852      8.1185296    
   4985000   296.12544     -5925.2342      1132.67       -2144.4832      10.092229    
   4990000   296.77043     -5924.8791      1158.5493     -2112.4809     -2.6589352    
   4995000   296.25498     -5927.4469      1164.5085     -2113.6989      31.503354    
   5000000   296.95647     -5911.4421      1168.0723     -2087.8573      26.610076    
   5005000   302.93264     -5923.5066      1160.8405     -2053.7122      49.924954    
   5010000   304.01238     -5903.4505      1182.2301     -2002.6109     -44.727237    
Loop time of 6060.91 on 18 procs for 5000000 steps with 3001 atoms

Performance: 2138.293 ns/day, 0.011 hours/ns, 824.959 timesteps/s
99.6% CPU use with 18 MPI tasks x 1 OpenMP threads

MPI task timing breakdown:
Section |  min time  |  avg time  |  max time  |%varavg| %total
---------------------------------------------------------------
Pair    | 43.908     | 432.78     | 1971.1     |2706.2 |  7.14
Bond    | 25.194     | 54.83      | 153.15     | 502.5 |  0.90
Neigh   | 2513.2     | 2522.4     | 2537.3     |  18.7 | 41.62
Comm    | 1210.5     | 2928.3     | 3372.6     |1171.3 | 48.31
Output  | 10.48      | 10.528     | 10.559     |   0.7 |  0.17
Modify  | 29.372     | 58.595     | 158.6      | 498.3 |  0.97
Other   |            | 53.45      |            |       |  0.88

Nlocal:        166.722 ave         512 max          55 min
Histogram: 8 0 8 0 0 0 0 0 0 2
Nghost:        4975.78 ave        5669 max        3685 min
Histogram: 2 0 0 0 4 4 0 0 0 8
Neighs:        3267.56 ave       15059 max         182 min
Histogram: 8 2 6 0 0 0 0 0 0 2
FullNghs:      6535.11 ave       30146 max         456 min
Histogram: 8 1 7 0 0 0 0 0 0 2

Total # of neighbors = 117632
Ave neighs/atom = 39.197601
Ave special neighs/atom = 3.5988004
Neighbor list builds = 500000
Dangerous builds = 500000
Total wall time: 1:41:05
