LAMMPS (23 Jun 2022)
OMP_NUM_THREADS environment is not set. Defaulting to 1 thread. (src/src/comm.cpp:98)
  using 1 OpenMP thread(s) per MPI task
Created orthogonal box = (0 0 0) to (150 150 150)
  2 by 3 by 3 MPI processor grid
Read molecule template lig:
  1 molecules
  0 fragments
  5 atoms with max type 2
  4 bonds with max type 1
  3 angles with max type 1
  0 dihedrals with max type 0
  0 impropers with max type 0
Created 1 atoms
  using box units in orthogonal box = (0 0 0) to (150 150 150)
  create_atoms CPU = 0.000 seconds
Created 3500 atoms
  using lattice units in orthogonal box = (0 0 0) to (150 150 150)
  create_atoms CPU = 0.002 seconds
Finding 1-2 1-3 1-4 neighbors ...
  special bond factors lj:    0        1        1       
  special bond factors coul:  0        0        0       
     2 = max # of 1-2 neighbors
     2 = max # of 1-3 neighbors
     2 = max # of 1-4 neighbors
     7 = max # of special neighbors
  special bonds CPU = 0.001 seconds
3500 atoms in group ligands
Generated 0 of 6 mixed pair_coeff terms from geometric mixing rule
Neighbor list info ...
  update every 1 steps, delay 10 steps, check yes
  max neighbors/atom: 2000, page size: 100000
  master list distance cutoff = 60
  ghost atom cutoff = 60
  binsize = 30, bins = 5 5 5
  1 neighbor lists, perpetual/occasional/extra = 1 0 0
  (1) pair lj/expand, perpetual
      attributes: half, newton on
      pair build: half/bin/newton
      stencil: half/bin/3d
      bin: standard
Setting up Verlet run ...
  Unit style    : real
  Current step  : 0
  Time step     : 30
Per MPI rank memory allocation (min/avg/max) = 8.379 | 8.407 | 8.43 Mbytes
   Step          Temp          E_pair         E_mol          TotEng         Press     
         0   0              9.7193319e+12  4.313174e-25   9.7193319e+12  7.8985399e+11
      5000   143.266       -687.11599      717.68586      1525.2405     -1.7401741    
     10000   141.46985     -786.15919      733.29618      1423.0686     -2.361617     
Loop time of 5.14893 on 18 procs for 10000 steps with 3501 atoms

Performance: 5034.057 ns/day, 0.005 hours/ns, 1942.151 timesteps/s
99.6% CPU use with 18 MPI tasks x 1 OpenMP threads

MPI task timing breakdown:
Section |  min time  |  avg time  |  max time  |%varavg| %total
---------------------------------------------------------------
Pair    | 0.2615     | 0.43386    | 0.67906    |  17.7 |  8.43
Bond    | 0.087706   | 0.11663    | 0.15281    |   4.9 |  2.27
Neigh   | 2.23       | 2.2356     | 2.2433     |   0.3 | 43.42
Comm    | 1.82       | 2.1416     | 2.3708     |  10.2 | 41.59
Output  | 8.657e-05  | 0.00010376 | 0.00012696 |   0.0 |  0.00
Modify  | 0.11298    | 0.14337    | 0.18514    |   5.2 |  2.78
Other   |            | 0.07771    |            |       |  1.51

Nlocal:          194.5 ave         260 max         124 min
Histogram: 1 0 4 3 2 1 2 0 3 2
Nghost:        5600.17 ave        5862 max        5319 min
Histogram: 2 2 3 0 1 0 2 3 4 1
Neighs:        1564.61 ave        2687 max         548 min
Histogram: 1 1 4 3 2 2 0 1 3 1

Total # of neighbors = 28163
Ave neighs/atom = 8.0442731
Ave special neighs/atom = 3.5989717
Neighbor list builds = 909
Dangerous builds = 0
1 atoms in group nps
700 atoms in group amines
Generated 0 of 6 mixed pair_coeff terms from geometric mixing rule
Neighbor list info ...
  update every 1 steps, delay 10 steps, check yes
  max neighbors/atom: 2000, page size: 100000
  master list distance cutoff = 60
  ghost atom cutoff = 60
  binsize = 30, bins = 5 5 5
  2 neighbor lists, perpetual/occasional/extra = 1 1 0
  (1) pair lj/expand, perpetual
      attributes: half, newton on
      pair build: half/bin/newton
      stencil: half/bin/3d
      bin: standard
  (2) compute coord/atom, occasional
      attributes: full, newton on
      pair build: full/bin
      stencil: full/bin/3d
      bin: standard
Setting up Verlet run ...
  Unit style    : real
  Current step  : 10000
  Time step     : 30
Per MPI rank memory allocation (min/avg/max) = 7.748 | 7.771 | 7.792 Mbytes
   Step          Temp          E_pair         E_mol          TotEng         Press     
     10000   141.46985     -786.15919      733.29618      1423.0686     -2.361617     
     15000   306.1977      -844.74504      1462.2338      3811.999       12.284195    
     20000   295.46278     -972.86166      1529.92        3639.5729      16.451285    
     25000   298.43126     -1163.7511      1544.9007      3494.6337      26.155554    
     30000   306.13224     -1250.2381      1492.9172      3436.5064      11.802215    
     35000   291.99208     -1333.2997      1463.2154      3176.2209      6.3328305    
     40000   300.55623     -1483.9751      1538.7345      3190.4129      15.72343     
     45000   292.06024     -1560.6187      1447.8355      2934.2332      12.055193    
     50000   302.07278     -1670.139       1488.6748      2970.0113     -5.4453999    
     55000   296.80136     -1727.1689      1475.3904      2844.7011      15.762331    
     60000   301.68437     -1771.2402      1476.1832      2852.3663      13.548161    
     65000   299.61821     -1847.2018      1415.4278      2694.0934      12.336806    
     70000   298.05016     -1880.9036      1457.1255      2685.7301      17.559917    
     75000   298.74705     -1937.7469      1471.2647      2650.2965      19.984811    
     80000   299.42948     -1949.7676      1530.3922      2704.5231     -23.459386    
     85000   299.53687     -1993.5883      1486.169       2617.5994      1.1770892    
     90000   301.92565     -2048.302       1490.2995      2591.9381     -0.46368719   
     95000   306.99202     -2075.1655      1504.9478      2632.5795      2.7895346    
    100000   300.81084     -2077.4557      1503.1252      2563.9794     -4.1363871    
    105000   292.82991     -2064.8672      1474.6815      2464.8604      3.6773885    
    110000   298.63898     -2115.49        1499.4518      2499.6131     -6.0940279    
    115000   302.40302     -2112.3413      1454.0497      2496.6293      18.969371    
    120000   302.38594     -2212.5662      1447.5114      2389.6878      2.5868663    
    125000   298.14753     -2204.439       1431.0319      2337.117      -18.224769    
    130000   299.61556     -2227.1983      1491.4249      2390.0663      11.579319    
    135000   307.50906     -2249.1         1445.7739      2404.8653      15.565117    
    140000   299.71722     -2254.8889      1450.6892      2322.7007      7.1088537    
    145000   298.9111      -2253.925       1425.791       2290.3562      16.406871    
    150000   292.55971     -2287.5744      1459.4052      2224.0581      2.5256284    
    155000   304.58175     -2318.4907      1463.4911      2322.6515      21.737373    
    160000   302.37663     -2348.0168      1420.3918      2227.0205     -10.877889    
    165000   300.85924     -2355.0283      1465.9427      2249.7292      10.561021    
    170000   305.03386     -2349.2132      1493.304       2326.4587      6.1729431    
    175000   298.65436     -2386.4738      1477.2988      2206.6367     -6.9853206    
    180000   303.94441     -2430.7152      1458.4688      2198.7555      18.007817    
    185000   303.41654     -2414.5052      1418.2024      2169.1919     -13.499234    
    190000   303.88883     -2438.0706      1443.6922      2176.0437      18.261227    
    195000   303.66934     -2437.2538      1441.5915      2172.4699      5.0294539    
    200000   303.97206     -2476.7203      1521.6718      2216.2419     -11.114141    
    205000   297.98293     -2497.2184      1450.4384      2062.0267     -19.252907    
    210000   309.36833     -2478.7885      1431.3771      2180.1774      26.126648    
    215000   296.63099     -2514.1102      1459.6355      2040.2275      2.5149274    
    220000   301.4824      -2493.1874      1454.885       2107.0138      9.8203127    
    225000   307.27099     -2534.5369      1503.5646      2174.7354      4.8472648    
    230000   303.71656     -2523.4655      1458.6464      2103.8057      11.217553    
    235000   295.99656     -2571.2872      1444.8543      1961.6505      9.4007451    
    240000   298.85127     -2540.6877      1454.0118      2031.1901      5.4504067    
    245000   303.51673     -2550.7767      1430.0058      2045.769       14.408136    
    250000   302.45135     -2567.6137      1397.4841      1985.2955     -1.6547132    
    255000   298.24779     -2559.8129      1391.0352      1942.7924      0.64085934   
    260000   298.50593     -2580.5889      1498.4122      2032.0865     -7.8378839    
    265000   297.67741     -2567.517       1492.5519      2030.6543      0.097822393  
    270000   300.79306     -2589.597       1460.3054      2008.8329     -3.9423323    
    275000   298.74671     -2546.8059      1499.0769      2069.0462     -14.527366    
    280000   299.61821     -2565.8102      1461.6393      2021.6965      19.723579    
    285000   304.23723     -2582.5443      1436.0175      2027.5301     -10.047036    
    290000   303.93958     -2581.2739      1477.8355      2067.5131     -15.944653    
    295000   301.89507     -2619.8768      1435.565       1965.3096      6.2230485    
    300000   298.27993     -2614.4916      1476.539       1973.9528      9.4732035    
    305000   298.67672     -2602.3784      1468.4236      1982.0902      15.356015    
    310000   295.25284     -2581.9732      1471.2717      1969.6228      19.279191    
    315000   305.57706     -2600.8301      1470.2984      2057.5034      15.913882    
    320000   303.53007     -2605.4028      1464.2166      2025.493      -1.8099819    
    325000   299.19375     -2594.4919      1496.63        2023.5771      14.423089    
    330000   296.97327     -2600.4034      1449.8233      1947.6931     -27.2665      
    335000   298.66629     -2607.1805      1420.1357      1928.8913      24.347886    
    340000   299.5637      -2610.0219      1445.2584      1960.5353      0.01635421   
    345000   296.14005     -2621.4981      1472.0129      1940.0952      25.205867    
    350000   300.10232     -2646.0722      1428.9734      1913.8192      7.5380885    
    355000   302.29898     -2613.8216      1438.41        1978.4238      3.263148     
    360000   301.57956     -2644.4195      1466.9453      1968.8556     -8.9330012    
    365000   307.37928     -2642.0352      1507.397       2072.1991      18.160944    
    370000   300.01287     -2636.2016      1437.1921      1930.9753     -0.097164036  
    375000   296.96005     -2621.3207      1443.8736      1920.6882      0.16953598   
    380000   298.87171     -2654.737       1470.9513      1934.2936      12.335822    
    385000   301.17599     -2603.3507      1475.7912      2014.5599      0.56918381   
    390000   298.09454     -2650.0567      1496.6212      1956.5356     -14.894217    
    395000   304.47488     -2602.4189      1464.7304      2038.8478     -7.72603      
    400000   303.04888     -2635.1812      1474.1672      2000.645       19.216095    
    405000   300.82341     -2618.5253      1447.3857      1967.3015     -15.253441    
    410000   301.17392     -2619.7185      1505.1454      2027.5248      0.32066694   
    415000   301.87361     -2653.3841      1452.4981      1948.5117     -13.268547    
    420000   301.93222     -2608.4372      1414.2067      1955.7785     -3.1378025    
    425000   295.02834     -2653.0259      1429.2148      1854.1709     -3.510851     
    430000   304.79746     -2608.8038      1431.5763      2002.6741      23.946626    
    435000   300.08903     -2641.5737      1475.1392      1964.3448      14.949272    
    440000   297.6221      -2625.9667      1479.539       1958.6146     -14.1123      
    445000   302.7574      -2638.0258      1430.4504      1951.0426     -4.0639818    
    450000   302.85475     -2633.6269      1422.3621      1948.3689      6.9864167    
    455000   302.55196     -2635.684       1506.6578      2027.4485      1.0199074    
    460000   297.21436     -2638.4718      1420.1987      1882.5154      10.175247    
    465000   302.92519     -2616.0686      1476.6281      2020.9281     -9.3206461    
    470000   304.56836     -2613.1332      1461.4751      2025.8534      22.744673    
    475000   304.78326     -2597.1235      1479.3439      2061.9739      3.6618227    
    480000   296.31        -2612.1221      1505.9881      1985.2194      11.680989    
    485000   302.2736      -2645.7227      1486.0333      1993.8812      4.8918144    
    490000   302.20161     -2628.2126      1468.8747      1993.4817     -20.682834    
    495000   300.818       -2656.1189      1398.2261      1880.4918     -2.3628465    
    500000   297.34039     -2643.1659      1425.4578      1884.3952      3.4022409    
    505000   303.20239     -2589.7314      1457.3046      2030.8337      11.229505    
    510000   303.12215     -2630.1463      1429.6983      1961.9755     -5.4334099    
    515000   302.78011     -2622.9801      1430.6866      1966.5615     -0.64658684   
    520000   294.85386     -2619.2886      1459.746       1916.6191      2.0033472    
    525000   295.49642     -2608.1456      1443.2944      1918.0142      9.8698677    
    530000   302.8377      -2633.0687      1421.3977      1947.7848     -10.704754    
    535000   290.20345     -2660.0039      1419.9621      1787.6029      9.6669924    
    540000   302.77675     -2631.646       1464.8276      1992.0016      16.333929    
    545000   301.03281     -2658.2075      1466.9196      1949.3378     -2.2998965    
    550000   301.71211     -2640.1186      1415.6302      1923.2244      10.659106    
    555000   307.56184     -2650.7774      1430.4453      1988.4098      6.5963053    
    560000   300.12693     -2642.2245      1420.4632      1909.4135     -1.777631     
    565000   297.81194     -2622.7386      1441.6001      1925.8844      3.5331896    
    570000   305.995       -2649.1674      1465.9753      2009.2034      20.799857    
    575000   297.39401     -2629.5417      1495.3401      1968.4612     -5.1614989    
    580000   300.27506     -2633.1221      1433.2414      1932.8395      18.14293     
    585000   305.47874     -2585.7431      1504.3356      2105.6019     -4.3813706    
    590000   291.85881     -2613.42        1447.4559      1878.9507     -2.0857994    
    595000   299.22693     -2644.0003      1421.1676      1898.9525      13.269043    
    600000   299.16279     -2678.6635      1486.2031      1928.6557      15.043122    
    605000   300.5643      -2656.9796      1450.2666      1929.0249      1.7363637    
    610000   300.56327     -2657.7647      1448.6888      1926.6512      7.5445739    
    615000   299.89546     -2671.9644      1417.5091      1874.3046      2.8609306    
    620000   307.01192     -2657.656       1440.8346      1986.1834      7.4466929    
    625000   300.63122     -2668.7028      1453.7811      1921.5143      4.7585674    
    630000   290.55169     -2636.2259      1450.5301      1845.5821      2.8556979    
    635000   299.56688     -2689.9722      1440.5733      1875.933       19.794198    
    640000   307.39895     -2667.8271      1499.244       2038.4596      4.4821225    
    645000   300.5075      -2675.2496      1439.0848      1898.9805     -8.6884466    
    650000   306.67196     -2677.0042      1447.8893      1970.3431      1.8868765    
    655000   295.61056     -2672.3003      1387.0041      1798.76        24.986056    
    660000   287.34564     -2703.0382      1459.6353      1754.4268     -1.4423523    
    665000   304.34445     -2711.7817      1439.385       1902.7788      11.272182    
    670000   304.24338     -2722.7381      1487.0771      1938.4601      1.2925876    
    675000   298.72709     -2710.8815      1451.3401      1857.0291      1.8542731    
    680000   300.95948     -2690.2868      1489.0595      1938.6333     -4.2010458    
    685000   299.46544     -2694.2873      1473.2974      1903.2837     -34.416644    
    690000   305.7128      -2700.0013      1462.1073      1951.5573      1.2935992    
    695000   299.51424     -2682.2118      1396.7701      1839.341       1.0650951    
    700000   299.0977      -2708.4323      1444.89        1856.8947     -8.3034123    
    705000   294.00491     -2690.7017      1480.1178      1856.721       8.834451     
    710000   308.80288     -2680.7151      1455.6917      1996.6661     -6.2398317    
    715000   295.07127     -2669.7079      1468.6417      1877.3637      21.487573    
    720000   299.76914     -2675.2507      1453.9479      1906.1392      9.1636622    
    725000   297.83173     -2662.7061      1445.521       1890.0442      4.0790131    
    730000   303.67216     -2630.1637      1449.711       1987.709      -6.2324145    
    735000   303.01481     -2572.5146      1471.302       2060.0909     -2.5466245    
    740000   295.48205     -2630.1062      1410.9873      1863.5965     -3.3143887    
    745000   304.71837     -2640.3684      1460.8632      1999.5714      6.2295518    
    750000   304.66552     -2654.0736      1409.9937      1934.4453      16.10534     
    755000   300.61659     -2676.5346      1472.0527      1931.8014      4.9624509    
    760000   305.50254     -2658.0879      1444.1547      1973.3245      10.510231    
    765000   303.36835     -2680.3893      1493.6303      1978.2331     -5.4670596    
    770000   299.52685     -2634.1366      1467.2611      1958.0387      20.377945    
    775000   301.88033     -2653.3578      1468.1174      1964.2273     -0.88549004   
    780000   297.78936     -2617.3267      1430.7303      1920.1909      17.581762    
    785000   305.22411     -2642.1549      1413.4062      1955.6041      15.995934    
    790000   291.14549     -2657.3343      1380.7474      1760.886       4.842305     
    795000   291.60751     -2658.8375      1477.9463      1861.4018      12.483761    
    800000   305.23813     -2636.9528      1415.6822      1963.2285      21.433923    
    805000   303.57842     -2655.0306      1493.1926      2005.3456      7.8816761    
    810000   294.10237     -2620.4988      1453.241       1901.0637     -6.5777936    
    815000   296.32099     -2608.5732      1429.0111      1911.9059      3.8731475    
    820000   297.35071     -2633.2417      1415.712       1884.6812     -9.9129087    
    825000   295.09032     -2640.4859      1440.4583      1878.6011     -7.8728229    
    830000   302.90573     -2667.0236      1464.2637      1957.4056      17.317902    
    835000   302.89869     -2683.7306      1449.0851      1925.4466      1.9114832    
    840000   298.01827     -2674.9876      1493.6427      1927.8306      17.332171    
    845000   296.42439     -2682.5191      1451.4967      1861.5245      14.119883    
    850000   303.50253     -2687.5352      1414.585       1893.4416     -9.8995788    
    855000   301.00478     -2667.9657      1494.3517      1966.7192     -6.5626739    
    860000   304.13553     -2678.5205      1452.287       1946.7624     -4.5509952    
    865000   301.29196     -2677.2351      1402.3815      1868.4757      18.594704    
    870000   299.18063     -2675.912       1461.0705      1906.4607     -0.37665784   
    875000   298.57168     -2688.5245      1470.957       1897.3817      13.992386    
    880000   298.38632     -2711.9264      1478.518       1879.6069     -2.7805663    
    885000   302.80978     -2703.7956      1431.6552      1887.0241      16.350625    
    890000   300.86979     -2681.1822      1451.1632      1908.9058     -13.473824    
    895000   292.99256     -2659.7947      1479.4467      1876.3951      1.0025788    
    900000   296.77266     -2697.0393      1470.9002      1870.0412      1.88801      
    905000   307.12513     -2697.6128      1468.8861      1975.4591      21.52163     
    910000   301.74361     -2693.9374      1478.2533      1932.3573     -6.3282776    
    915000   304.17806     -2691.1624      1450.2095      1932.4867     -8.7280715    
    920000   294.19053     -2639.5993      1408.1218      1837.7638      16.816215    
    925000   303.69879     -2701.7159      1426.3494      1893.0729     -2.5881498    
    930000   294.72792     -2692.1564      1419.3515      1802.0428     -0.79595095   
    935000   297.92392     -2698.3787      1514.226       1924.0384      12.82151     
    940000   300.09342     -2695.3508      1438.0157      1873.4901      0.45226681   
    945000   302.06996     -2696.2126      1480.8166      1936.0501      14.806754    
    950000   301.27888     -2706.3161      1449.579       1886.4557      1.6307067    
    955000   300.13474     -2714.4666      1387.1567      1803.9464      8.2899131    
    960000   298.48801     -2683.6156      1451.1029      1881.5635      26.663402    
    965000   299.40688     -2692.7799      1468.7965      1899.6793      11.13751     
    970000   295.85289     -2679.5895      1454.8033      1861.7982      8.1862314    
    975000   308.40505     -2666.1166      1434.5099      1985.9324     -1.2758331    
    980000   292.19775     -2665.7867      1429.1203      1811.7845     -12.303031    
    985000   303.63179     -2650.1446      1504.0947      2021.6906     -17.654999    
    990000   296.41187     -2628.2086      1510.4296      1974.6373     -6.3399085    
    995000   301.33711     -2618.1525      1478.2453      2003.8932      6.8014292    
   1000000   299.09259     -2636.461       1483.0979      1967.0205      4.3678411    
   1005000   297.05679     -2609.9157      1450.5396      1939.7684     -16.633495    
   1010000   305.76929     -2626.2664      1499.2742      2063.0485      13.60195     
   1015000   300.03199     -2650.4905      1481.0888      1960.7826     -15.667433    
   1020000   298.62687     -2615.0802      1483.9432      1984.3879      16.907987    
   1025000   301.47713     -2642.7108      1446.7504      1949.3007     -7.4462893    
   1030000   299.79804     -2638.2914      1410.3626      1899.8147     -19.086017    
   1035000   296.93807     -2644.5239      1521.6606      1975.0426      19.24675     
   1040000   298.86386     -2643.8216      1435.1077      1909.2834      6.5309489    
   1045000   303.21697     -2616.7905      1434.6378      1981.2599     -3.3788228    
   1050000   300.90771     -2634.518       1505.435       2010.2375      3.1595052    
   1055000   296.17943     -2641.4521      1408.8523      1857.3913     -2.4567466    
   1060000   298.32374     -2641.2949      1417.1398      1888.2072      12.965144    
   1065000   302.72499     -2667.8262      1384.1377      1874.5915      6.4939505    
   1070000   299.63555     -2656.027       1435.3381      1905.3593      3.4510957    
   1075000   296.40571     -2653.3743      1381.9575      1820.9352     -6.6393149    
   1080000   298.18395     -2675.4159      1465.584       1901.0722      9.7132953    
   1085000   306.10742     -2659.9513      1499.881       2033.498       5.3569644    
   1090000   300.1524      -2647.9486      1472.7334      1956.2252     -8.1741522    
   1095000   300.99145     -2666.8038      1426.7682      1900.1586      11.188179    
   1100000   294.02319     -2611.7968      1458.5902      1914.2889      14.249647    
   1105000   297.28892     -2620.4081      1518.7408      1999.8989      4.5115202    
   1110000   302.7287      -2648.293       1478.0597      1988.0854      7.2760167    
   1115000   302.55092     -2631.6498      1429.9917      1954.8058      4.4687656    
   1120000   303.20086     -2676.5725      1398.2962      1884.9683      1.0362991    
   1125000   299.94452     -2652.6171      1431.5949      1908.2496      32.729214    
   1130000   301.49961     -2640.2738      1456.566       1961.7879     -11.293726    
   1135000   303.25386     -2657.3733      1454.5663      1960.9905      8.1957855    
   1140000   298.39896     -2610.768       1428.4288      1930.8079      7.64853      
   1145000   294.72549     -2671.3747      1457.1794      1860.6271      7.785215     
   1150000   301.8163      -2675.0989      1448.1509      1921.8517     -14.882231    
   1155000   296.09822     -2647.2642      1471.9264      1913.8061     -23.17416     
   1160000   296.7081      -2676.5178      1427.0039      1845.9929     -2.4312014    
   1165000   293.83769     -2660.5463      1425.9471      1830.9609      21.405264    
   1170000   297.77527     -2678.7868      1402.9671      1830.8207      37.902722    
   1175000   301.47374     -2697.3164      1457.8788      1905.7883     -9.1264615    
   1180000   294.11112     -2677.4335      1482.242       1873.2214      0.70693684   
   1185000   296.95345     -2637.5305      1435.1506      1895.6865      20.576994    
   1190000   297.43718     -2644.4665      1510.8114      1969.458      -5.3216428    
   1195000   295.12856     -2670.5896      1401.6212      1810.0592      28.824133    
   1200000   305.87691     -2696.9742      1527.2743      2021.4635     -9.1734143    
   1205000   293.91597     -2692.24        1433.4344      1807.5713      0.20874509   
   1210000   305.27226     -2712.3832      1440.9995      1913.4714      19.074681    
   1215000   304.1914      -2715.7479      1474.8805      1932.7113      35.40743     
   1220000   298.42467     -2696.3917      1410.162       1827.1857      9.4819913    
   1225000   298.95954     -2685.5195      1446.708       1880.1841      22.542223    
   1230000   297.13303     -2715.6201      1471.1888      1855.5086      39.731058    
   1235000   290.44528     -2692.323       1478.51        1816.3547     -6.9754393    
   1240000   299.59615     -2674.2697      1427.8179      1879.1854     -9.1420354    
   1245000   292.19408     -2685.527       1424.9158      1787.8015     -8.0488005    
   1250000   302.67738     -2688.1554      1461.8167      1931.4444      13.256098    
   1255000   290.24833     -2691.0826      1464.6134      1801.6437      8.6461461    
   1260000   298.12204     -2661.7183      1433.7353      1882.2752     -5.6200662    
   1265000   300.93772     -2670.1408      1420.4337      1889.9265      11.389426    
   1270000   295.01893     -2655.9238      1466.0319      1887.9919      20.945127    
   1275000   295.16009     -2663.3435      1473.3911      1889.4042      16.192783    
   1280000   298.18729     -2665.0003      1471.1127      1917.0511     -6.8244079    
   1285000   296.39285     -2661.6212      1464.9153      1895.5119      9.6371291    
   1290000   297.98542     -2651.1449      1470.6256      1928.3135      8.6633913    
   1295000   301.33322     -2624.624       1417.3429      1936.4787      11.070737    
   1300000   302.29119     -2599.6795      1473.3418      2027.4164      2.2095234    
   1305000   307.99073     -2625.9573      1467.2087      2054.468       1.4427093    
   1310000   301.33166     -2633.7335      1445.527       1955.537      -0.16032457   
   1315000   308.8848      -2612.693       1441.2265      2051.0776      7.1484034    
   1320000   299.44971     -2606.3333      1462.2997      1980.0758     -14.297627    
   1325000   293.31927     -2594.0013      1459.8592      1926.0095     -0.91195351   
   1330000   307.64363     -2644.6031      1455.1046      2020.0968      4.7454194    
   1335000   299.12883     -2640.3532      1445.4155      1925.8241      5.9044801    
   1340000   300.36784     -2656.1375      1474.6637      1952.2143     -8.8267142    
   1345000   299.72634     -2630.0932      1462.3669      1959.2692      17.505336    
   1350000   303.35661     -2618.5666      1471.4348      2017.7376      2.6644114    
   1355000   304.28386     -2616.6236      1442.0335      1999.9533     -7.5334764    
   1360000   304.55666     -2613.4875      1432.6569      1996.5588     -9.7634233    
   1365000   298.47613     -2639.8619      1462.9597      1937.0501      6.4917374    
   1370000   296.67261     -2644.314       1457.8057      1908.6282      17.979125    
   1375000   298.64175     -2672.3108      1437.2889      1880.6583     -18.043446    
   1380000   304.34357     -2662.1037      1485.7052      1998.7678     -5.1590777    
   1385000   301.98462     -2708.5138      1440.872       1882.914      -20.299658    
   1390000   301.30482     -2684.7866      1482.7152      1941.3921     -7.7103189    
   1395000   311.16933     -2688.0346      1466.3568      2024.7005      15.281148    
   1400000   292.90988     -2691.6074      1476.3255      1840.5986     -6.3846138    
   1405000   302.61981     -2717.5008      1480.4559      1920.1376     -1.3140541    
   1410000   293.91576     -2735.9658      1424.0079      1754.4168      23.307062    
   1415000   298.49889     -2710.3572      1386.2881      1790.1206      19.027511    
   1420000   300.32487     -2736.1763      1517.4977      1914.5612      13.87892     
   1425000   303.10525     -2708.55        1457.6681      1911.3652      11.457483    
   1430000   298.74653     -2726.1859      1475.7292      1866.3165     -17.50345     
   1435000   294.44097     -2723.2883      1418.264       1766.8299     -9.4342189    
   1440000   294.7416      -2711.3624      1438.6905      1802.3186     -5.2622263    
   1445000   302.60217     -2750.9586      1426.0707      1832.1107     -11.62802     
   1450000   298.32521     -2730.15        1464.1702      1846.398       16.496783    
   1455000   300.20423     -2683.8176      1484.1364      1932.3         30.747274    
   1460000   302.50925     -2719.8612      1432.5809      1868.7488     -4.8678638    
   1465000   293.40709     -2693.6744      1403.6176      1771.011      -6.3443585    
   1470000   301.16403     -2650.5787      1508.5264      1999.9424      25.810091    
   1475000   301.82496     -2672.0008      1427.1586      1904.0479      7.443672     
   1480000   302.11279     -2653.1125      1445.9733      1944.7537      4.742398     
   1485000   299.51944     -2642.3533      1429.206       1911.6896     -2.5527274    
   1490000   292.3199      -2663.6111      1443.5425      1829.6567     -0.62870091   
   1495000   305.01759     -2674.7734      1446.6887      1954.1136     -13.275969    
   1500000   293.67914     -2724.0694      1420.5905      1760.4271      5.7284902    
   1505000   301.74845     -2699.5491      1444.4764      1893.0191      19.375541    
   1510000   305.50587     -2702.7542      1449.1429      1933.6812      13.349127    
   1515000   305.83879     -2703.4054      1445.7039      1933.0642      20.830636    
   1520000   297.4465      -2686.5787      1440.2951      1856.9266      1.5347489    
   1525000   306.28035     -2711.7156      1423.1319      1906.7887      3.280863     
   1530000   303.49083     -2684.4446      1383.1125      1864.9376      2.2403405    
   1535000   299.60044     -2675.6967      1472.1758      1922.161       32.073644    
   1540000   290.2536      -2652.6707      1435.4915      1810.9888      15.411707    
   1545000   301.34631     -2628.7138      1445.2814      1960.4639      19.232987    
   1550000   297.70278     -2628.4783      1513.723       1991.1287      1.7562775    
   1555000   300.31373     -2595.9124      1453.4296      1990.6408      12.18059     
   1560000   296.47986     -2587.9612      1492.6307      1997.7951     -5.4982759    
   1565000   303.30611     -2600.9828      1511.9198      2075.2797      4.2572628    
   1570000   304.59322     -2640.1018      1449.4577      1987.1268     -2.9327596    
   1575000   306.92443     -2651.4822      1409.1226      1959.7323      1.926102     
   1580000   300.33502     -2681.4427      1459.8274      1911.7305      39.776253    
   1585000   301.51589     -2680.0854      1440.9892      1906.5695      21.126778    
   1590000   298.34056     -2689.7083      1434.1729      1857.0024      27.359549    
   1595000   300.3545      -2673.0393      1461.4178      1921.9274      9.5132074    
   1600000   304.72148     -2684.559       1464.5493      1959.0992      19.672975    
   1605000   299.14875     -2648.8096      1433.844       1906.0039      9.6192452    
   1610000   302.1461      -2649.3341      1422.3201      1925.2264     -16.144003    
   1615000   300.09051     -2652.8891      1455.8942      1933.7999     -1.0853003    
   1620000   300.0787      -2631.9239      1403.8043      1902.552       5.1789135    
   1625000   298.30748     -2651.9294      1429.3285      1889.5919      2.7806109    
   1630000   300.38295     -2634.4741      1503.811       2003.1827      5.7469578    
   1635000   300.22726     -2651.9968      1415.1549      1895.3796     -4.8886433    
   1640000   294.53166     -2640.7134      1452.0745      1884.1614     -8.3921443    
   1645000   300.96009     -2646.0431      1411.1554      1904.9793     -24.010217    
   1650000   292.79961     -2658.0294      1477.5605      1874.261      -3.5593292    
   1655000   308.61981     -2651.5136      1452.8045      2021.0705      11.779475    
   1660000   306.67527     -2652.8841      1463.6562      2010.2647      20.286909    
   1665000   295.75547     -2624.7371      1444.6772      1905.5081      2.994667     
   1670000   295.22066     -2676.0116      1462.377       1866.3539     -1.3893377    
   1675000   297.72203     -2713.4304      1489.9186      1882.573       0.64715235   
   1680000   294.10074     -2677.0413      1414.3995      1805.6628     -3.3533517    
   1685000   304.47436     -2653.7671      1471.0507      1993.8145      0.72827842   
   1690000   296.67791     -2677.8103      1454.7595      1872.141       5.1039381    
   1695000   305.87679     -2709.3567      1467.5876      1949.3931     -5.2315437    
   1700000   299.73654     -2714.7593      1449.2478      1861.5905     -0.34863631   
   1705000   296.81829     -2677.1791      1477.1445      1896.6217     -0.55349168   
   1710000   296.42781     -2705.852       1450.3113      1837.0418      2.9608571    
   1715000   295.35347     -2716.9298      1478.274       1842.7182      7.6399145    
   1720000   295.76586     -2672.837       1439.6833      1852.5228     -14.383111    
   1725000   296.78785     -2745.5575      1417.0309      1767.8121      1.5062457    
   1730000   300.51297     -2736.47        1450.4011      1849.1334     -27.361852    
   1735000   297.22394     -2756.6037      1422.6106      1766.8952      7.376646     
   1740000   300.53873     -2791.081       1416.3985      1760.7886      16.31553     
   1745000   296.8863      -2762.2894      1480.1451      1815.2215     -8.4912091    
   1750000   304.27346     -2764.2332      1501.5739      1911.7755     -5.8275749    
   1755000   298.22257     -2752.4474      1409.566       1768.4256      18.785578    
   1760000   310.72614     -2742.6848      1456.0491      1955.119       1.7946101    
   1765000   295.63026     -2750.2121      1454.2725      1788.3222     -10.683757    
   1770000   299.02402     -2765.8527      1525.5715      1879.3871      13.666138    
   1775000   298.61688     -2698.3675      1413.1624      1830.2156      3.3952261    
   1780000   297.48613     -2728.244       1451.8208      1827.2006     -12.124365    
   1785000   300.06649     -2732.0956      1419.6364      1818.085       21.564002    
   1790000   307.4651      -2728.5444      1481.7539      1960.9422      25.343515    
   1795000   300.75285     -2689.5678      1449.8741      1898.0112     -1.3112672    
   1800000   299.71789     -2711.8224      1473.9083      1888.9933      31.197858    
   1805000   302.55158     -2699.4705      1439.1972      1896.1974     -1.8166604    
   1810000   296.96134     -2657.5456      1429.5933      1870.1964      14.655373    
   1815000   299.81034     -2644.0006      1464.1295      1948.0007      12.999918    
   1820000   292.10389     -2623.8209      1444.7034      1868.3542      6.5953076    
   1825000   308.52913     -2656.7709      1451.4819      2013.5445     -17.083376    
   1830000   295.88172     -2648.3964      1462.7515      1901.2403      16.411844    
   1835000   300.69387     -2681.4266      1406.6395      1862.3024      4.0375269    
   1840000   303.04042     -2657.6984      1441.2739      1945.1463      14.835115    
   1845000   305.43689     -2669.6057      1430.925       1947.892       10.374908    
   1850000   303.65604     -2643.1549      1498.9086      2023.7472      33.593323    
   1855000   303.34579     -2645.9573      1442.1604      1960.9598      8.0769004    
   1860000   300.13485     -2663.4494      1441.1674      1908.9755      11.811515    
   1865000   301.88518     -2653.8477      1464.2413      1959.912       14.493825    
   1870000   299.75314     -2653.9022      1446.8825      1920.2555     -4.0181767    
   1875000   302.31887     -2651.0368      1370.7635      1873.7697      19.999732    
   1880000   301.17898     -2648.8948      1478.4668      1971.7226      7.166968     
   1885000   297.54289     -2620.0404      1431.0322      1915.2076      11.228101    
   1890000   299.06891     -2615.5944      1505.9029      2010.4452     -24.731596    
   1895000   296.59335     -2634.0581      1428.9933      1889.2448      26.612404    
   1900000   300.5639      -2625.4143      1486.917       1997.2364      6.794908     
   1905000   296.71553     -2669.6984      1447.1979      1873.0837     -9.3185197    
   1910000   297.15263     -2663.5089      1439.7859      1876.4213     -2.8749525    
   1915000   305.20218     -2644.9167      1474.9995      2014.2068      9.9144289    
   1920000   291.53107     -2643.1041      1445.3658      1843.7573     -22.569657    
   1925000   293.21099     -2639.0855      1428.1981      1848.1345      14.399204    
   1930000   301.15013     -2603.6724      1434.1013      1972.2785      16.40655     
   1935000   296.64039     -2652.1921      1428.8056      1871.4138      26.094818    
   1940000   302.0463      -2671.3988      1398.6412      1878.4417     -13.870339    
   1945000   296.83698     -2641.4842      1466.0386      1921.4057     -14.858638    
   1950000   299.39268     -2628.6694      1441.8752      1936.7202      9.6891275    
   1955000   304.37182     -2642.1789      1487.0811      2020.3632     -17.722727    
   1960000   291.0947      -2648.1025      1419.7263      1808.5667     -12.277006    
   1965000   301.58293     -2672.873       1451.0196      1924.5116      5.673808     
   1970000   302.3773      -2683.9947      1461.6077      1932.2655      18.598263    
   1975000   301.79625     -2667.7629      1436.3513      1917.1789     -9.845117     
   1980000   291.49193     -2684.0514      1451.6407      1808.6765      1.7933461    
   1985000   298.31214     -2706.7929      1464.9989      1870.4474      0.76066483   
   1990000   298.45809     -2639.013       1451.7078      1926.4589     -15.247096    
   1995000   295.90042     -2657.9706      1418.6286      1847.7383      2.8145548    
   2000000   298.03292     -2604.3937      1477.4916      1982.4263      26.412425    
   2005000   297.38515     -2636.3014      1434.6826      1900.9514     -0.050006429  
   2010000   302.94532     -2651.2417      1455.1624      1964.4992      2.4874762    
   2015000   304.45648     -2611.1123      1481.2837      2046.5157     -4.8135416    
   2020000   302.32673     -2651.8506      1494.6065      1996.8808      9.362681     
   2025000   300.38793     -2649.8895      1432.9768      1916.985       22.20928     
   2030000   292.98975     -2629.0482      1438.3716      1866.0372      8.3343481    
   2035000   297.9553      -2599.5553      1480.8362      1989.7994      1.6547717    
   2040000   298.91979     -2619.7736      1450.4711      1949.2784      20.76338     
   2045000   303.76311     -2628.6694      1484.9816      2025.4227     -5.7103725    
   2050000   300.14962     -2639.0342      1398.0221      1890.3994      11.55933     
   2055000   304.30561     -2608.0667      1447.8076      2014.5112      10.664416    
   2060000   297.58726     -2608.1109      1401.2175      1897.7854      11.044489    
   2065000   299.39329     -2610.4608      1440.4587      1953.5187     -6.6449339    
   2070000   302.07866     -2637.7407      1385.6047      1899.4009      9.2961579    
   2075000   299.79111     -2619.0443      1470.4632      1979.0902     -19.389049    
   2080000   304.57903     -2641.5821      1444.7394      1980.7801      24.22133     
   2085000   300.45789     -2687.5891      1459.4686      1906.5072      10.317985    
   2090000   298.38232     -2678.9489      1477.8883      1911.913       13.561684    
   2095000   296.76192     -2691.668       1395.5614      1799.9616     -0.32174016   
   2100000   296.44867     -2707.3344      1480.3936      1865.8593      3.3540239    
   2105000   297.72079     -2680.4992      1481.0156      1906.5884     -9.1637946    
   2110000   301.0813      -2709.8428      1443.0248      1874.3135      13.504504    
   2115000   286.71747     -2705.0407      1487.4553      1773.6907     -3.0735088    
   2120000   302.28883     -2722.4385      1457.9835      1889.2745     -8.8375538    
   2125000   296.46554     -2750.4083      1408.8176      1751.3854      2.4437895    
   2130000   297.88067     -2750.3648      1461.5689      1818.944      -5.3998253    
   2135000   303.63373     -2672.7545      1440.765       1935.7711      38.973009    
   2140000   305.32107     -2674.3316      1451.6756      1962.7085      4.7021915    
   2145000   302.38053     -2681.0907      1399.0913      1872.6867     -7.1596649    
   2150000   299.679       -2654.2929      1422.189       1894.3977      15.826785    
   2155000   309.11651     -2671.6639      1443.8676      1997.1653      13.533547    
   2160000   299.25101     -2701.9589      1398.1575      1818.2351     -2.0357708    
   2165000   300.56176     -2709.0117      1436.0686      1862.7682      5.5330521    
   2170000   290.80978     -2693.1408      1426.832       1767.6617     -11.187048    
   2175000   303.05027     -2663.8062      1473.4039      1971.2712      6.7655288    
   2180000   293.4834      -2688.0187      1437.9823      1811.8276     -9.7571202    
   2185000   300.39052     -2669.144       1516.8315      1981.6123     -18.306198    
   2190000   295.27105     -2723.7583      1454.892       1811.6478     -3.8108048    
   2195000   299.975       -2680.5552      1423.9537      1872.9882     -4.3677177    
   2200000   298.04256     -2679.4724      1439.9471      1869.9036     -6.7456787    
   2205000   300.3348      -2670.069       1499.853       1963.1275      24.760166    
   2210000   301.37724     -2653.438       1436.0244      1926.8054      21.357388    
   2215000   301.15144     -2671.7981      1452.4625      1922.5277     -11.644363    
   2220000   298.20299     -2655.1406      1422.683       1878.6451      27.466676    
   2225000   295.37968     -2657.7062      1474.703       1898.6442      14.552228    
   2230000   302.40675     -2681.1162      1425.8385      1899.682       15.056566    
   2235000   297.48215     -2649.553       1427.9652      1881.9945     -9.077706     
   2240000   297.85666     -2690.8394      1465.3908      1882.0409      9.504981     
   2245000   305.90686     -2670.7354      1467.9195      1988.6599      13.960753    
   2250000   301.30932     -2683.6387      1465.3062      1925.178       14.760271    
   2255000   295.36511     -2638.0128      1393.4057      1836.8884      23.238158    
   2260000   299.84467     -2648.1975      1422.9748      1903.0074     -7.6339582    
   2265000   299.04129     -2639.8382      1453.92        1933.9303      27.605206    
   2270000   302.30373     -2658.8888      1460.31        1955.3063      27.13671     
   2275000   296.7084      -2633.5535      1478.2932      1940.2494     -24.896382    
   2280000   304.40504     -2645.001       1399.0362      1929.8428      9.5555291    
   2285000   303.12414     -2679.3946      1457.3812      1940.4308      15.522517    
   2290000   303.52231     -2680.3972      1459.604       1945.8051      5.2439021    
   2295000   304.25898     -2671.1752      1429.9859      1933.0945     -1.6141254    
   2300000   301.64104     -2711.8721      1463.2982      1898.3974      21.201057    
   2305000   297.56382     -2686.0373      1431.0897      1849.4867      8.8966455    
   2310000   297.09694     -2680.3877      1438.3456      1857.5212     -5.6169565    
   2315000   301.00465     -2677.1798      1399.149       1862.3012     -5.4871176    
   2320000   304.35268     -2689.6407      1417.1426      1902.7633      4.955707     
   2325000   300.96894     -2681.6444      1426.327       1884.6419     -8.2609403    
   2330000   295.90825     -2660.1022      1424.7042      1851.764      -10.638648    
   2335000   295.17751     -2682.9531      1504.3884      1900.9736     -5.0592122    
   2340000   299.21513     -2684.8863      1483.3208      1920.0966      1.4859181    
   2345000   301.6189      -2659.7918      1403.9268      1890.8752      38.748617    
   2350000   302.75379     -2657.4711      1447.9289      1949.0382      22.784885    
   2355000   291.72839     -2658.0343      1469.2523      1854.7723      2.3105643    
   2360000   303.83248     -2655.7603      1451.2905      1965.3643      7.1961987    
   2365000   295.4387      -2666.2825      1415.4443      1831.425       15.303546    
   2370000   297.19096     -2666.7223      1431.4468      1865.2687      16.18861     
   2375000   303.99036     -2669.078       1453.813       1956.2163      6.6477445    
   2380000   303.49377     -2653.8584      1386.0775      1898.5196      4.442189     
   2385000   303.13924     -2674.9411      1437.3359      1924.9966     -5.7079158    
   2390000   297.63375     -2666.4369      1475.1933      1913.9203      4.7607189    
   2395000   301.85158     -2690.8218      1463.7443      1922.0903      4.9422692    
   2400000   303.50485     -2723.4287      1473.4733      1916.4607      5.4341874    
   2405000   300.84164     -2690.0726      1452.2841      1900.8427      38.503508    
   2410000   293.66691     -2702.6497      1443.9572      1805.086       3.2460012    
   2415000   300.38859     -2692.0641      1458.0556      1899.8961     -6.0627618    
   2420000   299.74466     -2694.0446      1434.9294      1868.0714      4.1308395    
   2425000   299.57931     -2708.1638      1475.9808      1893.2785      8.7396936    
   2430000   299.94577     -2717.359       1440.4282      1852.3541      17.051694    
   2435000   295.18266     -2717.367       1446.398       1808.623       30.670179    
   2440000   296.42752     -2715.3522      1405.3391      1782.5664     -7.0280024    
   2445000   302.26681     -2715.5562      1468.0094      1905.9531      9.5328679    
   2450000   311.60662     -2736.0555      1436.5004      1951.3854     -11.424117    
   2455000   299.32031     -2744.1774      1422.6996      1801.2817      9.6864091    
   2460000   304.2168      -2767.5225      1454.6324      1860.9537      11.087502    
   2465000   296.26198     -2750.3453      1434.3875      1774.8946     -11.086839    
   2470000   300.68708     -2718.159       1443.652       1862.5117     -14.972045    
   2475000   301.06424     -2696.0187      1494.1981      1939.133       24.228656    
   2480000   305.69448     -2710.1814      1462.0411      1941.1198      10.936135    
   2485000   306.31471     -2727.0159      1491.2215      1959.9364     -12.084884    
   2490000   301.6904      -2717.9317      1459.8681      1889.4227      1.9754628    
   2495000   294.69911     -2672.3897      1462.2561      1864.4137      12.960579    
   2500000   303.05485     -2665.9542      1455.9928      1951.7599      9.9730599    
   2505000   306.60017     -2670.2526      1413.204       1941.6604      11.162603    
   2510000   296.37908     -2671.4644      1439.7259      1860.3357      20.816235    
   2515000   299.3851      -2661.0512      1492.7816      1955.1657     -16.731688    
   2520000   303.71892     -2650.552       1441.3861      1959.4836     -11.065634    
   2525000   300.9424      -2681.0935      1469.6288      1928.2178      7.6560355    
   2530000   301.78476     -2679.8335      1438.4316      1907.0688      7.5854382    
   2535000   293.31801     -2661.1565      1435.0072      1833.9891      14.305473    
   2540000   299.59089     -2658.1989      1510.5608      1977.9443      2.4406282    
   2545000   297.52655     -2670.6256      1415.5611      1848.981       28.197254    
   2550000   307.30689     -2680.077       1450.9352      1976.9404      10.346501    
   2555000   308.36468     -2641.0419      1464.0534      2040.1293      0.31000496   
   2560000   300.3862      -2677.8742      1446.5699      1902.5753      10.68096     
   2565000   301.18901     -2671.5891      1483.6186      1954.2849     -19.16854     
   2570000   299.55703     -2635.9494      1450.841       1940.1207      10.801523    
   2575000   302.83098     -2646.0064      1500.928       2014.3073      11.037196    
   2580000   301.35378     -2690.7834      1499.5075      1952.6984      3.2738917    
   2585000   307.06426     -2677.9599      1437.3157      1962.9066     -11.073152    
   2590000   296.4431      -2640.4344      1442.4606      1894.7682     -1.1133082    
   2595000   292.90371     -2624.433       1484.0017      1915.3847     -3.5736198    
   2600000   297.6415      -2626.702       1479.4507      1957.9934      33.1261      
   2605000   298.76601     -2625.3509      1393.3804      1885.0061      15.949622    
   2610000   304.5399      -2658.7984      1478.0691      1996.4853      10.134363    
   2615000   306.75387     -2642.8753      1425.3515      1982.7888     -1.5493746    
   2620000   302.11169     -2665.7095      1456.0485      1942.2204      5.4520834    
   2625000   300.38175     -2663.3113      1454.3826      1924.9047      26.516415    
   2630000   291.72627     -2634.625       1402.5165      1811.4236      23.721614    
   2635000   298.56146     -2643.2689      1454.6197      1926.1933      1.7079887    
   2640000   302.94951     -2639.5173      1430.3649      1951.4699      33.893386    
   2645000   294.3502      -2637.6201      1446.7252      1880.0122      18.198011    
   2650000   297.76012     -2653.7695      1433.4882      1886.2009     -1.2535146    
   2655000   297.79913     -2651.543       1470.3618      1925.708      -10.613733    
   2660000   298.5437      -2652.2882      1460.3589      1922.7279      3.6026882    
   2665000   303.4723      -2667.4122      1457.8244      1956.4887     -3.4634978    
   2670000   302.79786     -2651.12        1415.8793      1923.7994      15.462004    
   2675000   293.30864     -2635.375       1449.0538      1873.7195      4.2727111    
   2680000   304.19648     -2648.0157      1497.6446      2023.2605      20.006951    
   2685000   292.2847      -2665.9162      1476.1038      1859.5456      9.5831501    
   2690000   298.95496     -2672.9435      1479.5129      1925.5172      8.4438454    
   2695000   291.49365     -2644.8046      1445.6627      1841.9634     -4.8997325    
   2700000   296.83042     -2653.0258      1434.5582      1878.3153     -9.7137123    
   2705000   298.43342     -2674.4414      1452.4811      1891.5464      7.565503     
   2710000   302.64941     -2656.4934      1421.0535      1922.0515     -8.2753215    
   2715000   301.62395     -2656.114       1507.5871      1998.2661     -8.4301231    
   2720000   301.79357     -2634.11        1464.8961      1979.3487      1.7614009    
   2725000   302.6926      -2629.7419      1468.1917      1996.3918      16.248361    
   2730000   298.71839     -2646.2738      1422.7433      1892.9493      10.412591    
   2735000   305.90904     -2663.5176      1488.9503      2016.9312      20.267622    
   2740000   297.68714     -2652.7765      1498.2605      1951.2049      3.6311471    
   2745000   292.2216      -2680.1653      1475.4939      1844.0284      14.448658    
   2750000   301.29012     -2704.5093      1440.6645      1879.4654     -4.7623417    
   2755000   304.68629     -2701.5554      1449.9871      1927.1735      20.38993     
   2760000   296.17436     -2713.8835      1486.0991      1862.1538     -6.171756     
   2765000   292.32253     -2733.3019      1465.8936      1782.3444      21.66301     
   2770000   301.50046     -2728.6578      1428.4519      1845.2987      28.955158    
   2775000   297.86339     -2712.3406      1479.3943      1874.6135      27.435173    
   2780000   301.02405     -2748.418       1437.8339      1829.9502      10.570781    
   2785000   306.39488     -2736.3438      1425.6892      1885.9126     -13.82312     
   2790000   307.7148      -2742.1666      1458.0036      1926.1748     -9.2076521    
   2795000   299.45507     -2728.028       1448.4839      1844.6213      4.9364895    
   2800000   293.86519     -2694.5762      1458.2273      1829.4982     -17.022641    
   2805000   298.57578     -2733.0606      1423.8074      1805.7387      6.7893406    
   2810000   292.05933     -2736.259       1479.2866      1790.0345      0.28708128   
   2815000   300.89619     -2720.1508      1425.5809      1844.6304      8.2219045    
   2820000   301.54971     -2726.801       1460.5664      1879.7837      21.273349    
   2825000   301.70987     -2701.2596      1423.2113      1869.641      -2.0103088    
   2830000   292.58205     -2718.396       1448.6969      1782.7611      14.06101     
   2835000   301.41646     -2722.2616      1454.6769      1877.0435     -12.578001    
   2840000   307.42343     -2706.7033      1467.0438      1967.6384      4.1172812    
   2845000   295.35134     -2703.815       1480.7494      1858.2862     -2.9721791    
   2850000   293.46204     -2684.0461      1422.7622      1800.3572      1.3827686    
   2855000   294.2696      -2719.9105      1479.1453      1829.3011      3.5862082    
   2860000   294.98593     -2714.3697      1427.5496      1790.7195      16.42377     
   2865000   295.74588     -2721.9547      1412.4607      1775.974       30.886901    
   2870000   302.4882      -2734.7943      1462.8713      1883.8865      23.362224    
   2875000   293.92489     -2723.2161      1410.6321      1753.8859      7.3343037    
   2880000   292.00126     -2749.9666      1417.1579      1713.5923      13.714698    
   2885000   301.4331      -2697.9904      1451.9619      1898.7734      1.4301398    
   2890000   304.00207     -2690.965       1422.8393      1903.4778     -16.250557    
   2895000   300.38277     -2698.1789      1422.5115      1858.1765      37.311434    
   2900000   303.96889     -2736.0264      1408.7115      1843.9424      16.001174    
   2905000   295.10201     -2717.5128      1473.4297      1834.6675      6.4126734    
   2910000   301.2827      -2736.5817      1447.3519      1854.0029      8.1352612    
   2915000   300.1563      -2748.1321      1466.5226      1849.8718      6.1168395    
   2920000   299.27339     -2753.0043      1482.6898      1851.9555     -2.5676967    
   2925000   297.02632     -2732.9776      1435.3978      1801.2468     -7.6593286    
   2930000   307.01033     -2731.9595      1477.0549      1948.0836      7.5063678    
   2935000   298.32986     -2736.385       1438.3413      1814.3826      2.2984248    
   2940000   302.13431     -2689.2276      1406.4848      1869.3746     -17.631606    
   2945000   298.54887     -2701.8603      1439.8934      1852.7442      30.42103     
   2950000   295.13344     -2683.0389      1484.7891      1880.8287      9.9936382    
   2955000   294.94653     -2714.5928      1433.7084      1796.2441     -0.88619375   
   2960000   301.38827     -2706.6549      1468.5321      1906.2114     -5.1430839    
   2965000   293.9338      -2724.3984      1443.3926      1785.557       12.202282    
   2970000   300.34177     -2705.206       1517.8144      1946.0246      8.4044198    
   2975000   300.0713      -2701.8412      1418.1199      1846.8731      1.3261095    
   2980000   300.82389     -2711.4974      1460.6542      1887.6028      23.735763    
   2985000   301.36957     -2732.0263      1459.641       1871.7538      10.363735    
   2990000   302.95959     -2680.7379      1506.1973      1986.1869      2.4275562    
   2995000   303.87622     -2668.3325      1481.543       1983.5011      26.286205    
   3000000   298.80575     -2669.8399      1445.1597      1892.711       13.091721    
   3005000   295.26546     -2664.3777      1425.4372      1841.5153      6.6372021    
   3010000   302.14391     -2689.0293      1450.4257      1913.6141     -7.1833413    
   3015000   305.0321      -2670.085       1432.184       1944.4487      25.791381    
   3020000   298.71159     -2734.6807      1418.3093      1800.0374      18.649007    
   3025000   296.70087     -2671.9305      1398.0441      1821.5449      8.7498347    
   3030000   305.92041     -2669.205       1444.6251      1967.0373      24.792102    
   3035000   297.56977     -2656.3764      1456.9884      1905.1085      13.275174    
   3040000   304.43624     -2662.4839      1479.1574      1992.8066      7.5823748    
   3045000   295.81903     -2674.1329      1452.4422      1864.5404      0.542873     
   3050000   305.56619     -2693.8588      1476.2725      1970.3354     -1.3522809    
   3055000   304.0331      -2685.9905      1432.482       1918.4187      19.691797    
   3060000   307.10928     -2684.1969      1446.3825      1966.2061     -9.1268143    
   3065000   299.44551     -2669.5816      1412.2025      1866.6865     -4.632433     
   3070000   298.59152     -2651.1877      1462.3185      1926.2869     -4.5285877    
   3075000   293.59967     -2655.9966      1432.9862      1840.0666     -9.0732867    
   3080000   299.67525     -2676.2159      1365.4342      1815.6808      9.0301301    
   3085000   300.16707     -2673.3405      1463.2846      1921.5377     -19.979847    
   3090000   303.48277     -2668.5861      1420.5822      1918.1818      20.073861    
   3095000   298.61605     -2697.999       1454.6834      1872.0964      14.155697    
   3100000   297.85884     -2686.2877      1496.2036      1917.428      -3.0405443    
   3105000   298.51815     -2714.3236      1433.9109      1833.9779      4.9643361    
   3110000   302.11563     -2705.1201      1385.1415      1831.944       5.6691136    
   3115000   302.62624     -2722.4313      1457.6923      1892.5107     -8.8173123    
   3120000   302.72155     -2724.931       1500.0938      1933.4068      13.272413    
   3125000   296.8361      -2683.2982      1416.3967      1829.9406      29.100336    
   3130000   299.2192      -2722.5767      1457.6542      1856.782       7.8468442    
   3135000   308.17158     -2686.681       1453.0183      1981.4407     -3.5771455    
   3140000   301.26619     -2751.5231      1463.5144      1855.0518      14.768828    
   3145000   305.14453     -2726.1289      1445.919       1903.3127      17.634385    
   3150000   302.50779     -2713.2768      1403.0363      1845.7735      27.541228    
   3155000   302.55828     -2706.3133      1431.8185      1882.0458      0.70229008   
   3160000   294.13915     -2733.9847      1459.2153      1793.9358      2.9708518    
   3165000   296.37779     -2722.8042      1450.2421      1819.4986      18.996278    
   3170000   298.26564     -2741.432       1415.9872      1786.3114      20.632353    
   3175000   303.38872     -2759.3507      1463.4631      1869.317       2.1911981    
   3180000   298.52563     -2759.4785      1500.7677      1855.758       11.387516    
   3185000   295.78918     -2747.9478      1438.8419      1776.8138     -2.74221      
   3190000   303.01929     -2707.1012      1463.112       1917.3611      3.756926     
   3195000   292.79858     -2714.109       1460.8505      1801.4608      15.3649      
   3200000   306.69763     -2660.5567      1451.8632      1991.0323      22.578458    
   3205000   293.91076     -2676.497       1444.7239      1834.5494      34.141867    
   3210000   308.03034     -2659.4938      1429.2418      1983.3777      24.626816    
   3215000   301.65798     -2684.787       1434.7755      1897.1365      7.6833316    
   3220000   295.34693     -2663.345       1492.4823      1910.4432      15.43035     
   3225000   302.14604     -2682.7851      1410.1643      1879.619       10.142396    
   3230000   307.87623     -2669.9638      1427.1241      1969.1823     -8.7152864    
   3235000   299.94442     -2701.1178      1475.0786      1903.2315     -13.718447    
   3240000   306.22717     -2706.3944      1475.9878      1964.411       21.723716    
   3245000   296.90783     -2728.2011      1456.5862      1825.9755      1.4199805    
   3250000   296.68918     -2695.1108      1398.238       1798.4366      24.723458    
   3255000   304.59087     -2674.1196      1420.3824      1924.0092      11.127823    
   3260000   301.40153     -2671.9064      1458.7036      1931.2696      25.644916    
   3265000   301.11972     -2684.9828      1440.2388      1896.7885      4.2747607    
   3270000   289.41405     -2662.5439      1479.9909      1836.8561     -13.564482    
   3275000   304.61872     -2653.7085      1444.0708      1968.3991      21.082186    
   3280000   299.76656     -2646.4299      1470.0146      1950.9999     -5.5090229    
   3285000   301.72883     -2714.6235      1410.6267      1843.8903     -1.7526966    
   3290000   299.65143     -2659.767       1419.4202      1885.8672      18.381392    
   3295000   302.64393     -2711.3129      1465.0319      1911.1532      37.249552    
   3300000   300.50577     -2667.7758      1464.64        1931.9914      41.403177    
   3305000   297.36968     -2701.1984      1454.7833      1855.9937      47.824057    
   3310000   303.74933     -2702.5021      1466.1494      1932.614      -0.96505377   
   3315000   302.25208     -2684.4934      1427.7351      1896.5878     -0.42299756   
   3320000   308.84078     -2688.9007      1447.055       1980.2393      0.0025721181 
   3325000   296.90603     -2700.3139      1490.0588      1887.3166     -8.4028909    
   3330000   305.49856     -2640.6432      1413.6194      1960.1923      2.3997471    
   3335000   302.5368      -2677.602       1539.5705      2018.2851     -3.7815751    
   3340000   294.80891     -2662.5844      1384.7645      1797.8729     -0.13660179   
   3345000   301.78287     -2648.0415      1487.2421      1987.6516      8.2358408    
   3350000   296.42086     -2617.138       1470.8711      1946.2431     -0.037572937  
   3355000   297.75155     -2657.9658      1484.3932      1932.8203      6.7742989    
   3360000   301.03768     -2651.36        1452.427       1941.7436      2.421918     
   3365000   300.62349     -2667.7671      1447.8691      1916.4574      2.7497515    
   3370000   300.67268     -2678.5698      1445.1631      1903.4619      25.417394    
   3375000   297.59091     -2657.6348      1425.4539      1872.5359      10.176775    
   3380000   300.55611     -2656.1357      1390.5453      1870.062      -11.969959    
   3385000   300.76188     -2661.7531      1509.23        1985.2761      20.095314    
   3390000   300.71044     -2655.2926      1464.3889      1946.3588     -15.90341     
   3395000   302.82074     -2682.987       1462.1384      1938.4303      18.909031    
   3400000   303.04859     -2657.7132      1453.929       1957.8718     -6.9272453    
   3405000   293.65514     -2650.305       1503.8814      1917.232      -10.120519    
   3410000   305.17646     -2621.2365      1466.5324      2029.1516     -7.5688533    
   3415000   304.9011      -2632.1776      1462.7003      2011.5056     -6.2428372    
   3420000   296.10597     -2639.6151      1415.2925      1864.9021      5.1616201    
   3425000   302.16356     -2635.6931      1447.4525      1964.182       27.357551    
   3430000   302.24899     -2641.4722      1422.128       1933.9698     -6.5509437    
   3435000   303.37229     -2632.4879      1460.7709      1993.3161      7.1243871    
   3440000   297.685       -2657.6496      1431.9193      1879.9682      0.51746192   
   3445000   298.41837     -2643.8803      1432.6474      1902.1167     -12.570141    
   3450000   301.17747     -2634.2224      1414.4096      1922.3221      5.5170377    
   3455000   299.72185     -2647.3905      1429.943       1909.5012      19.512567    
   3460000   294.85542     -2637.2554      1478.8221      1917.7448      31.858998    
   3465000   293.37194     -2644.6856      1376.8916      1792.9071     -0.47856233   
   3470000   297.51863     -2633.9426      1401.6023      1871.6225     -12.086191    
   3475000   303.60186     -2622.5055      1473.4813      2018.4039      14.995046    
   3480000   305.57339     -2639.3635      1430.0316      1978.665       24.167021    
   3485000   300.14308     -2618.4694      1392.5022      1905.3761     -5.2120583    
   3490000   304.215       -2624.2507      1473.2626      2022.8368     -3.4709543    
   3495000   301.75671     -2659.0087      1411.3274      1900.4967     -7.1472672    
   3500000   293.23851     -2643.7615      1501.4108      1916.9583      17.645552    
   3505000   304.92942     -2645.1703      1437.629       1973.737       7.6886475    
   3510000   293.16827     -2652.3204      1459.2909      1865.5467      9.1116382    
   3515000   294.01502     -2638.8761      1495.4971      1924.0313     -3.8946588    
   3520000   305.34221     -2686.8834      1460.1969      1958.8985      3.6480472    
   3525000   296.48716     -2640.3698      1430.5972      1883.429      -1.5839894    
   3530000   298.30684     -2644.0615      1445.7442      1913.8688     -15.109313    
   3535000   296.468       -2611.3479      1420.601       1902.2549      14.13837     
   3540000   294.82476     -2618.1049      1491.0147      1948.7678      10.189468    
   3545000   297.55563     -2630.0368      1415.2917      1889.6038      27.038138    
   3550000   300.74597     -2647.5046      1484.4804      1974.6089     -3.8806251    
   3555000   297.52383     -2649.863       1425.8469      1880.001      -1.7559892    
   3560000   295.04366     -2654.3881      1438.5207      1862.2745      12.136533    
   3565000   296.35485     -2643.8225      1449.7947      1897.7935      27.310088    
   3570000   303.87274     -2655.7416      1408.943       1923.4555      7.41551      
   3575000   296.8646      -2671.9472      1472.782       1897.9742      3.212993     
   3580000   299.85089     -2686.9441      1430.5259      1871.8767     -0.22005883   
   3585000   299.97018     -2637.4881      1497.517       1989.5683      16.67324     
   3590000   299.28551     -2638.5595      1438.9091      1922.7459      8.9016087    
   3595000   297.15628     -2668.3629      1443.9495      1875.769      -0.94267544   
   3600000   302.37465     -2656.0172      1427.1533      1925.761       23.461691    
   3605000   302.15473     -2638.5736      1490.5708      2004.3277     -8.2699743    
   3610000   305.3326      -2640.3604      1391.1847      1936.3091      8.4151579    
   3615000   299.33591     -2668.2865      1439.775       1894.4107      0.94677262   
   3620000   299.17841     -2660.5345      1388.7449      1849.4893      32.657581    
   3625000   304.90673     -2637.4525      1394.8131      1938.4022      4.6135091    
   3630000   301.99119     -2686.6149      1480.1127      1944.1221     -7.8510621    
   3635000   301.53719     -2645.4751      1493.8085      1994.2213      28.115398    
   3640000   296.42997     -2649.6466      1510.909       1953.8674     -14.835563    
   3645000   301.80115     -2677.6375      1370.365       1841.3692      17.665294    
   3650000   295.12862     -2660.7694      1410.4456      1828.7044      11.657632    
   3655000   293.24347     -2683.8113      1453.9693      1829.5189      0.26048512   
   3660000   300.87652     -2664.2155      1457.4041      1932.1838     -2.7161881    
   3665000   302.7853      -2667.1108      1452.7809      1944.5792     -3.9348388    
   3670000   301.45056     -2668.5724      1451.2712      1927.6828      14.350858    
   3675000   300.12276     -2696.9075      1423.8779      1858.1017     -8.7420389    
   3680000   303.31157     -2700.5161      1384.9217      1848.8052     -1.5899214    
   3685000   297.64772     -2734.1526      1405.6117      1776.7687      23.011549    
   3690000   306.96011     -2700.1247      1395.6099      1897.9493      20.626996    
   3695000   303.71368     -2713.8097      1493.4839      1948.2688      6.5776538    
   3700000   297.61919     -2686.6096      1429.458       1847.8603      35.70292     
   3705000   299.67716     -2649.9197      1480.605       1957.1677     -2.7062921    
   3710000   308.01739     -2695.4914      1420.0111      1938.0143      12.76541     
   3715000   303.18508     -2665.6089      1457.5729      1955.044       17.800013    
   3720000   296.91053     -2663.7423      1419.3349      1853.2112     -6.283845     
   3725000   300.66516     -2652.5645      1454.5865      1938.812      -3.0608549    
   3730000   299.08368     -2656.3875      1491.2283      1955.1315     -5.2712484    
   3735000   302.14562     -2637.6217      1482.1895      1996.8033      16.424087    
   3740000   294.64059     -2654.6098      1421.385       1840.712       9.9141602    
   3745000   303.32789     -2665.2907      1391.5578      1890.8369     -0.61977844   
   3750000   301.1693      -2669.0113      1447.321       1920.3594     -0.53077905   
   3755000   309.80257     -2684.3671      1439.2939      1987.0459      0.40062869   
   3760000   300.12943     -2672.1927      1437.2004      1896.2086     -0.45316374   
   3765000   302.23748     -2701.8948      1475.756       1927.055       7.7102771    
   3770000   304.27929     -2652.5238      1434.8914      1956.8633      4.8186203    
   3775000   300.00276     -2690.6375      1451.6005      1890.8423      4.8610723    
   3780000   295.16336     -2668.0487      1488.629       1899.971      -9.220434     
   3785000   305.6458      -2676.779       1421.484       1933.4573      7.5524709    
   3790000   299.64083     -2702.8597      1482.068       1905.3117     -1.3134206    
   3795000   301.29161     -2710.0569      1427.4249      1860.6937      18.224972    
   3800000   294.6826      -2686.7771      1484.9042      1872.5021      9.2146341    
   3805000   304.57736     -2688.5547      1445.0581      1934.1088      20.095666    
   3810000   303.18975     -2717.5433      1477.4754      1923.0608      2.736055     
   3815000   304.54551     -2681.9972      1458.0184      1953.2942      32.021935    
   3820000   302.23623     -2677.2034      1460.6291      1936.6065      11.538612    
   3825000   301.40605     -2662.5301      1458.0627      1940.0523     -4.3862631    
   3830000   306.90353     -2626.9462      1459.2456      2034.1734      6.3044374    
   3835000   300.31431     -2665.1072      1458.9217      1926.9443      22.054921    
   3840000   296.80227     -2666.1498      1452.7835      1883.1228      15.918788    
   3845000   302.84195     -2688.0564      1429.5874      1901.0311     -8.3514673    
   3850000   293.012       -2652.6342      1443.5091      1847.8208     -14.305125    
   3855000   293.29326     -2632.342       1436.4688      1864.0071      23.285226    
   3860000   303.51834     -2638.0994      1448.8216      1977.279      -1.6578637    
   3865000   304.77354     -2670.9448      1478.4281      1987.1354      26.298392    
   3870000   297.48244     -2628.8174      1442.8476      1917.6155      18.149298    
   3875000   301.86393     -2672.4646      1404.63        1881.4621      1.3349092    
   3880000   302.32479     -2652.5444      1470.649       1972.2093      1.4407736    
   3885000   302.93614     -2671.1674      1510.0087      1999.324      -5.8715475    
   3890000   298.86256     -2712.7625      1442.1712      1847.3926      15.738932    
   3895000   302.84709     -2663.4635      1432.259       1928.3493      6.3732315    
   3900000   293.83525     -2687.8633      1438.4497      1816.1212     -17.735275    
   3905000   297.68502     -2686.9065      1462.1529      1880.945      -1.3007288    
   3910000   304.29135     -2736.8589      1486.6226      1924.3852      15.025161    
   3915000   302.88717     -2723.4801      1437.0492      1873.541      -3.2563888    
   3920000   301.00027     -2735.9761      1459.4158      1863.7259      8.6490958    
   3925000   298.18843     -2711.5481      1442.4883      1841.8909      14.367759    
   3930000   303.37862     -2696.2462      1444.4765      1913.3294      21.278329    
   3935000   292.74499     -2692.6182      1445.6799      1807.222       25.1609      
   3940000   302.55034     -2693.0179      1477.1432      1940.5831      29.177535    
   3945000   302.22063     -2699.6379      1426.3847      1879.7648     -1.972494     
   3950000   303.56645     -2668.8344      1461.8078      1960.0322      17.410939    
   3955000   304.32345     -2644.8216      1484.5167      2014.6515     -8.7095455    
   3960000   299.02022     -2628.1777      1409.6189      1901.0699      1.5968282    
   3965000   304.80294     -2631.7201      1435.5267      1983.7654     -4.2439733    
   3970000   297.70696     -2655.7501      1445.5347      1895.7122      6.4788943    
   3975000   303.76891     -2675.9736      1457.9884      1951.1858      17.335038    
   3980000   301.26919     -2710.2218      1447.7001      1880.5701      16.019868    
   3985000   291.91717     -2713.4244      1454.8077      1786.9071     -17.550126    
   3990000   295.22571     -2725.1514      1451.4016      1806.2914     -18.148048    
   3995000   297.94122     -2737.2973      1547.4715      1918.5459     -6.4204662    
   4000000   291.43603     -2659.8813      1426.8408      1807.4636     -5.0198815    
   4005000   293.84618     -2709.7447      1449.5925      1805.4966      4.2685859    
   4010000   295.7904      -2691.1806      1456.0321      1850.784       1.4525608    
   4015000   298.99912     -2697.1861      1430.2059      1852.4283      5.0470751    
   4020000   291.23259     -2739.9944      1431.3355      1729.7227      1.0595641    
   4025000   302.82716     -2760.2423      1455.2222      1854.3258     -7.942537     
   4030000   296.61395     -2732.2886      1457.2861      1819.5219     -1.4698976    
   4035000   298.3696      -2724.2465      1467.9746      1856.5689      14.927877    
   4040000   298.12506     -2730.357       1470.0833      1850.016      -4.0048369    
   4045000   301.9487      -2730.3294      1488.4047      1908.2563     -7.7472976    
   4050000   296.62354     -2678.5229      1444.9365      1861.0381      2.6055043    
   4055000   307.7476      -2703.3142      1484.5281      1991.8938      20.049719    
   4060000   302.22939     -2679.7951      1390.642       1863.9563      12.373614    
   4065000   303.56248     -2664.642       1449.8049      1952.1803     -4.3643587    
   4070000   299.83581     -2656.0007      1440.1713      1912.3082      4.2670801    
   4075000   301.21544     -2649.1113      1466.9659      1960.3857      16.54097     
   4080000   302.77058     -2637.6946      1448.929       1969.9901      4.4244147    
   4085000   306.56092     -2653.6337      1442.7038      1987.3696      15.372122    
   4090000   299.24041     -2667.9547      1499.089       1953.0602      9.68449      
   4095000   296.91053     -2666.3617      1460.8238      1892.0807      11.964038    
   4100000   298.44618     -2697.4061      1421.7412      1837.975       14.722727    
   4105000   297.7469      -2684.1941      1474.1109      1896.2612      15.348686    
   4110000   303.19129     -2706.7047      1427.3539      1883.7939      20.583012    
   4115000   295.4366      -2691.208       1403.3605      1794.3939     -11.25443     
   4120000   299.36445     -2695.9007      1439.195       1866.5142     -14.815931    
   4125000   299.94624     -2690.5449      1457.3812      1896.1259      9.8370517    
   4130000   300.70614     -2684.1766      1434.7353      1887.7762      21.629446    
   4135000   301.71296     -2671.9961      1476.5218      1952.2473      4.4434218    
   4140000   292.97958     -2702.9418      1462.5036      1816.1694     -5.671585     
   4145000   298.12135     -2691.9359      1421.6432      1839.9582      10.717262    
   4150000   301.05926     -2695.7609      1428.8841      1874.0248      8.1842509    
   4155000   300.44455     -2710.725       1446.2323      1869.9959      7.3115913    
   4160000   300.66081     -2712.8605      1430.0338      1853.9179      22.676355    
   4165000   296.73251     -2716.6748      1438.3582      1817.4448     -4.0985818    
   4170000   294.91351     -2702.6861      1488.5193      1862.6172      25.18482     
   4175000   292.36015     -2687.4139      1424.7039      1787.4352      9.8352492    
   4180000   300.43303     -2652.4355      1499.9356      1981.8684     -16.025141    
   4185000   302.82803     -2644.8363      1417.165       1931.6836     -13.917284    
   4190000   293.24088     -2659.8311      1465.7613      1865.2639      21.110186    
   4195000   308.57297     -2641.8049      1444.7842      2022.2702     -18.079792    
   4200000   300.70926     -2654.5918      1460.542       1943.2003     -17.646779    
   4205000   297.98288     -2633.0683      1459.3568      1935.0948     -15.046188    
   4210000   302.18769     -2668.829       1471.3841      1955.2294      8.9898586    
   4215000   300.43608     -2651.9531      1462.3101      1944.7571     -9.9885206    
   4220000   308.94373     -2709.7721      1453.0674      1966.4544      4.7177588    
   4225000   301.59167     -2704.2445      1487.5617      1929.7734      10.509369    
   4230000   305.10222     -2703.717       1477.9264      1957.2906     -14.254797    
   4235000   305.53267     -2659.6772      1463.765       1991.6598     -9.9469885    
   4240000   303.08713     -2702.9699      1482.8599      1941.9481     -3.0269457    
   4245000   299.77222     -2654.8234      1469.56        1942.2108      8.5439452    
   4250000   299.91081     -2617.1799      1429.6116      1941.3517      27.091178    
   4255000   301.55113     -2658.6675      1402.3042      1889.67        7.9918826    
   4260000   302.37848     -2662.5034      1382.4987      1874.6603      6.0043852    
   4265000   298.61348     -2664.8467      1440.6771      1891.2155     -0.65170697   
   4270000   297.15807     -2676.5194      1468.1508      1891.8326     -9.9795512    
   4275000   307.25211     -2661.6547      1463.2673      2007.1231      13.11077     
   4280000   296.30762     -2710.7035      1437.2568      1817.8819      20.026816    
   4285000   302.84736     -2683.8169      1462.9464      1938.6861      10.654612    
   4290000   296.49165     -2671.8871      1423.3816      1844.743       5.9773103    
   4295000   307.72105     -2694.0406      1469.881       1986.2433      21.334509    
   4300000   304.88139     -2660.4135      1423.6079      1943.9716     -3.0222602    
   4305000   294.46048     -2690.8279      1430.8795      1812.1093     -1.5042464    
   4310000   298.43844     -2639.8523      1472.3273      1946.034      -14.388988    
   4315000   300.00102     -2634.1402      1466.8639      1962.5849     -1.8243683    
   4320000   293.59697     -2658.9743      1412.6895      1816.764       1.7895341    
   4325000   300.88349     -2657.1871      1452.6014      1934.4822      4.6627356    
   4330000   305.61662     -2646.2896      1478.8529      2021.0111     -15.769004    
   4335000   298.37328     -2656.8793      1473.4469      1929.4468      21.617547    
   4340000   297.10349     -2658.6754      1432.8644      1873.8208      30.902987    
   4345000   303.23282     -2664.0515      1472.7523      1972.2787      11.566481    
   4350000   299.60491     -2654.5083      1489.9883      1961.2087     -7.7723231    
   4355000   301.04558     -2697.2439      1459.3481      1902.8632      22.960853    
   4360000   296.47804     -2680.0649      1431.8844      1844.926       17.01408     
   4365000   297.35844     -2675.8168      1420.1525      1846.6272     -0.69015468   
[...]
  23945000   296.62564     -2756.7278      1468.2812      1806.1998      27.913198    
  23950000   304.30926     -2718.6815      1469.9472      1926.074       12.655919    
  23955000   294.28054     -2741.8309      1441.8226      1770.1721     -0.97611032   
  23960000   298.52568     -2713.7851      1431.2231      1831.9072      4.8741547    
  23965000   295.62634     -2752.4655      1418.5057      1750.2611      22.821981    
  23970000   299.09187     -2712.5446      1442.9639      1850.7955      12.410745    
  23975000   294.87282     -2707.0036      1436.1494      1805.5053      14.357799    
  23980000   294.18579     -2733.5246      1436.3439      1772.0112      13.91403     
  23985000   301.00156     -2726.3636      1418.493       1832.4291      4.1518104    
  23990000   301.50547     -2717.5646      1500.7657      1928.7579     -21.537361    
  23995000   302.92065     -2710.8069      1434.9406      1884.4548     -5.9662298    
  24000000   300.90031     -2763.0779      1440.0013      1816.1668     -5.6639638    
  24005000   300.94556     -2750.1785      1402.158       1791.695       5.8031387    
  24010000   300.6484      -2768.5701      1424.1942      1792.2394      22.523345    
  24015000   300.86887     -2765.3581      1470.3073      1843.8646     -6.7345144    
  24020000   306.39452     -2754.1717      1435.7778      1878.1696      46.226063    
  24025000   301.68337     -2737.7794      1380.4863      1790.1198      8.1604575    
  24030000   302.2257      -2747.6754      1406.2683      1811.6637     -12.530063    
  24035000   295.85119     -2758.211       1414.1973      1742.553      -20.716556    
  24040000   292.28281     -2719.0193      1491.941       1822.26       -12.780209    
  24045000   295.17802     -2754.3112      1492.3608      1817.5932     -15.253441    
  24050000   305.62422     -2740.4761      1501.5678      1949.6188      33.785535    
  24055000   296.77143     -2723.4003      1390.7301      1763.4973      4.3376137    
  24060000   297.75531     -2721.6701      1458.0922      1842.8541     -13.062264    
  24065000   305.95955     -2728.873       1458.4537      1921.6063      39.916451    
  24070000   299.23372     -2740.3781      1491.596       1873.074       2.7006894    
  24075000   296.97656     -2744.7815      1431.3244      1784.8505      22.751226    
  24080000   298.33327     -2739.0619      1432.3545      1805.7544      12.91805     
  24085000   302.24936     -2736.9849      1400.2754      1816.6083     -0.85931103   
  24090000   297.64813     -2734.1407      1441.0103      1812.1834      12.770156    
  24095000   298.57723     -2734.7108      1425.3426      1805.6388     -20.761499    
  24100000   300.82763     -2700.7446      1450.1917      1887.9321      13.943097    
  24105000   300.31054     -2731.7111      1423.9368      1825.316      -5.4840933    
  24110000   302.68736     -2708.7374      1509.4583      1958.6083      18.963135    
  24115000   295.06        -2654.703       1427.5057      1851.1151      8.987558     
  24120000   298.28774     -2702.5913      1459.8899      1869.2854      1.2673228    
  24125000   294.20321     -2669.0471      1446.7412      1847.0676      12.170922    
  24130000   301.52363     -2690.492       1383.185       1838.4393      32.618316    
  24135000   300.43256     -2689.0399      1447.3819      1892.7054      26.748399    
  24140000   296.38635     -2662.5118      1427.2983      1856.9364      17.523603    
  24145000   298.37913     -2738.9743      1454.3769      1828.343       12.749296    
  24150000   298.20084     -2733.2932      1476.6769      1854.4639      4.6047274    
  24155000   297.65938     -2741.4929      1411.1558      1775.0942      3.5333746    
  24160000   296.66132     -2721.9086      1429.3902      1802.5002      20.013272    
  24165000   296.91306     -2709.2021      1420.9819      1809.4248      2.0814847    
  24170000   305.44538     -2703.7776      1395.6349      1878.5186      10.560002    
  24175000   306.40722     -2713.5267      1440.703       1923.8724      14.957424    
  24180000   299.24105     -2709.5706      1424.0879      1836.4499      19.772348    
  24185000   305.75598     -2710.8626      1456.6008      1935.64        6.6826676    
  24190000   300.42785     -2722.4698      1498.078       1909.9224      16.259927    
  24195000   305.87945     -2691.1343      1429.1695      1929.225       15.404792    
  24200000   302.77152     -2697.3192      1444.3705      1905.8165      17.519145    
  24205000   293.00344     -2712.9911      1427.384       1771.2496     -6.1658045    
  24210000   300.64273     -2714.5815      1405.1851      1827.1596      37.548635    
  24215000   298.44322     -2719.6751      1441.7378      1835.6716      31.27691     
  24220000   295.58889     -2731.5688      1448.6299      1800.8912      1.1928373    
  24225000   296.92993     -2750.9989      1445.9651      1792.7873     -13.00808     
  24230000   297.66206     -2728.0341      1477.5925      1855.0177      9.9183666    
  24235000   301.13186     -2732.2277      1457.6142      1867.0456     -4.9637543    
  24240000   303.66173     -2745.7895      1441.7191      1863.9825      15.257167    
  24245000   298.49301     -2718.779       1463.5998      1858.9492     -0.75874962   
  24250000   302.87793     -2722.2568      1474.6049      1912.2235      40.961193    
  24255000   304.579       -2714.96        1353.709       1816.3715      19.628891    
  24260000   302.22411     -2705.353       1464.4697      1912.171      -4.066776     
  24265000   293.2383      -2717.6072      1405.1886      1746.8883      8.9802906    
  24270000   300.46606     -2772.527       1447.7585      1809.9444      13.15513     
  24275000   299.70535     -2765.3472      1468.0188      1829.4481      4.9735071    
  24280000   299.3468      -2760.8142      1441.1429      1803.3646      3.6125759    
  24285000   291.03943     -2758.5929      1436.8981      1714.6715      13.42985     
  24290000   306.16549     -2729.4589      1491.4998      1956.2149     -5.374045     
  24295000   300.09595     -2684.0736      1523.5552      1970.3331      1.28103      
  24300000   297.12732     -2735.5792      1397.0206      1761.3218      22.694019    
  24305000   298.70434     -2714.5095      1445.5637      1847.3874     -8.1603655    
  24310000   303.90558     -2721.2142      1462.5779      1911.9605      7.6636849    
  24315000   316.2279      -2705.7677      1433.0234      2026.4093      27.148518    
  24320000   293.26023     -2766.4667      1448.235       1741.3039     -15.73099     
  24325000   304.32641     -2714.6754      1430.4741      1890.786       9.2598422    
  24330000   303.29458     -2755.6837      1454.9036      1863.4423      13.561314    
  24335000   298.6345      -2728.0872      1442.1342      1829.6516      0.089554164  
  24340000   301.60071     -2763.3409      1499.4035      1882.6131      14.706814    
  24345000   291.70169     -2739.8658      1464.9183      1768.3281      7.7935689    
  24350000   304.95516     -2738.0215      1452.7587      1896.2841      1.8935296    
  24355000   298.65764     -2741.2491      1454.9943      1829.5911     -0.74481919   
  24360000   295.09597     -2757.843       1513.7472      1834.5918      8.217091     
  24365000   305.81406     -2753.6326      1445.3682      1882.2433      13.636629    
  24370000   303.5159      -2783.5947      1404.9919      1787.9285     -8.8424715    
  24375000   294.12085     -2782.423       1433.9619      1720.0532     -1.4830886    
  24380000   301.3847      -2754.4302      1460.4589      1850.3256      19.214069    
  24385000   299.83527     -2747.3293      1485.4352      1866.2378     -1.2966257    
  24390000   298.825       -2734.9869      1442.0261      1824.6311      13.285274    
  24395000   299.29205     -2725.4679      1447.664       1844.6608      2.5773599    
  24400000   291.3171      -2727.4213      1469.9303      1781.7724      6.4219838    
  24405000   293.77201     -2713.7014      1399.2953      1750.4689      0.30207996   
  24410000   307.80812     -2716.6735      1436.8222      1931.46        32.605302    
  24415000   300.33653     -2724.7775      1483.7113      1892.2953      4.9619369    
  24420000   304.06398     -2737.1744      1467.9409      1903.0158      0.70469535   
  24425000   294.47019     -2739.1491      1436.0499      1769.0597      17.209997    
  24430000   296.13695     -2757.6332      1503.6783      1835.5931      22.329737    
  24435000   308.50589     -2720.6704      1449.9132      1947.834      -8.0959522    
  24440000   304.12775     -2713.8215      1461.7169      1920.81        16.711254    
  24445000   296.52314     -2700.86        1366.0029      1758.7199      5.4882827    
  24450000   304.53793     -2710.1368      1502.7907      1969.848       10.225239    
  24455000   303.84048     -2744.1228      1458.3313      1884.1262      0.83647048   
  24460000   294.1388      -2711.6462      1465.4775      1822.5328      21.366195    
  24465000   293.14745     -2699.675       1424.3011      1782.9852      16.036147    
  24470000   303.75623     -2718.8126      1423.1609      1873.3871      11.839311    
  24475000   298.68297     -2707.3504      1517.3543      1926.1141     -12.34613     
  24480000   304.06843     -2654.8272      1439.7354      1957.204       0.61351968   
  24485000   289.1263      -2691.842       1450.5244      1775.0894     -7.358355     
  24490000   303.4261      -2670.5464      1438.875       1933.9231      18.223891    
  24495000   298.09528     -2676.0388      1414.0239      1847.9641      27.881162    
  24500000   294.89864     -2646.3682      1489.0244      1919.2851      2.938937     
  24505000   302.42156     -2679.669       1394.5569      1870.0022      0.83365425   
  24510000   305.95109     -2675.9099      1402.1149      1918.1422      0.26823293   
  24515000   307.37622     -2715.742       1441.9941      1933.0575      6.7253028    
  24520000   299.84477     -2682.5758      1496.392       1942.0471     -15.667001    
  24525000   293.81002     -2672.282       1434.5202      1827.5097     -16.090176    
  24530000   293.37531     -2702.5405      1391.0499      1749.2456     -9.987681     
  24535000   290.04178     -2651.0256      1435.2124      1810.1449     -2.3376139    
  24540000   297.42583     -2641.8245      1390.6881      1851.8582      25.931355    
  24545000   293.08815     -2687.0087      1489.6934      1860.425       6.8794933    
  24550000   302.55883     -2657.3189      1428.2636      1927.4911     -16.330351    
  24555000   300.63217     -2641.1165      1415.0565      1910.386       27.156698    
  24560000   299.88824     -2626.2528      1461.7039      1964.1357      20.378211    
  24565000   300.31862     -2612.5153      1402.5189      1923.1783      21.051549    
  24570000   304.98239     -2622.1373      1412.429       1972.1226      19.569192    
  24575000   303.76944     -2662.2065      1461.4535      1968.4235      14.536679    
  24580000   300.68235     -2633.2458      1423.0334      1926.7569     -0.37088955   
  24585000   298.80556     -2632.119       1424.2011      1909.4712      9.2387752    
  24590000   304.58436     -2670.7984      1495.1382      2002.0183      5.7758597    
  24595000   307.72996     -2678.3427      1426.2563      1958.4096     -0.53799238   
  24600000   295.15566     -2641.0977      1465.675       1903.8876     -0.65209471   
  24605000   302.10524     -2626.4035      1433.3337      1958.7444      10.898495    
  24610000   303.79557     -2626.1828      1438.5765      1981.8427      22.740458    
  24615000   295.94821     -2634.5431      1446.5636      1899.5994      3.2457635    
  24620000   296.42313     -2669.049       1436.0273      1859.5119      17.53535     
  24625000   307.31313     -2687.5505      1436.6548      1955.2517      20.389607    
  24630000   299.44717     -2652.9619      1466.072       1937.1931     -12.287746    
  24635000   301.67769     -2679.7165      1418.2303      1885.8674      18.001281    
  24640000   298.43907     -2648.5467      1427.4617      1892.4805     -1.2293861    
  24645000   301.98151     -2647.6284      1456.6776      1959.5725      1.8160456    
  24650000   298.61161     -2606.8057      1465.7927      1974.3528      7.1349777    
  24655000   298.61492     -2631.5728      1441.3498      1925.1774      18.741177    
  24660000   302.45512     -2630.8549      1444.5824      1969.192      -0.007181561  
  24665000   297.95097     -2628.9826      1460.8576      1940.3483      14.208358    
  24670000   298.77247     -2642.3358      1463.8984      1938.6065     -4.8366305    
  24675000   305.08235     -2602.2088      1493.5301      2074.1952      1.3328401    
  24680000   303.98362     -2625.2146      1437.1963      1983.3927      13.242583    
  24685000   302.07017     -2634.7445      1439.0584      1955.7622      38.760673    
  24690000   303.33593     -2616.1348      1466.8338      2015.3528      17.107642    
  24695000   304.04361     -2650.9326      1490.5377      2011.642      -2.747626     
  24700000   299.55248     -2641.4203      1440.6367      1924.3981     -16.072386    
  24705000   302.1229      -2589.9445      1423.1144      1985.1683      10.477203    
  24710000   296.18858     -2685.4808      1439.0091      1843.615       17.884885    
  24715000   305.59862     -2647.0131      1443.6008      1984.8477      18.34953     
  24720000   298.29794     -2664.604       1492.1081      1939.5972     -17.239945    
  24725000   304.66137     -2648.2863      1455.7091      1985.9047     -0.020191891  
  24730000   306.04401     -2687.2293      1500.1941      2005.8716      39.802752    
  24735000   306.81905     -2696.3197      1419.1993      1923.8722     -25.394241    
  24740000   297.74516     -2695.7311      1431.1352      1841.7303      3.1000364    
  24745000   303.81659     -2663.6055      1450.3565      1956.4194      2.3600779    
  24750000   294.38019     -2671.0307      1411.5241      1811.7133      4.8179865    
  24755000   301.52008     -2667.4364      1444.5933      1922.8662     -8.6558167    
  24760000   297.08097     -2632.5162      1485.0787      1951.9593     -6.7458598    
  24765000   301.36926     -2652.666       1440.1731      1931.6429     -10.047265    
  24770000   289.9405      -2681.9801      1468.6023      1811.5236      17.705996    
  24775000   297.42308     -2673.5364      1471.0143      1900.444       2.0883553    
  24780000   297.34603     -2683.2857      1501.9914      1920.8678     -7.6695819    
  24785000   299.33481     -2649.1415      1451.2825      1925.0517      12.294587    
  24790000   301.53828     -2665.4055      1538.3922      2018.8859      17.735209    
  24795000   299.08117     -2657.4174      1429.283       1892.1301      7.7937314    
  24800000   303.55397     -2682.3927      1407.1859      1891.7217     -5.3918171    
  24805000   302.9042      -2684.5496      1440.4922      1916.0922      4.958593     
  24810000   302.41021     -2700.2716      1430.2719      1884.9962      14.095698    
  24815000   300.55345     -2702.8181      1476.4399      1909.2464      5.2369465    
  24820000   302.38978     -2712.7045      1445.1312      1887.2094      16.572508    
  24825000   311.94759     -2710.3461      1469.7793      2013.9309      10.468559    
  24830000   304.33784     -2706.293       1383.7652      1852.5787      23.717903    
  24835000   296.72043     -2699.5189      1445.2601      1841.3765      5.0576996    
  24840000   301.22785     -2681.3544      1420.4459      1881.7521     -8.6650308    
  24845000   303.13638     -2696.4581      1504.4678      1970.5816      9.3211191    
  24850000   300.26518     -2689.4847      1412.9923      1856.1248      11.874335    
  24855000   297.06939     -2670.2996      1456.0215      1884.9978     -30.367837    
  24860000   298.70677     -2695.5759      1485.8968      1906.6794     -0.35077151   
  24865000   301.44952     -2709.8559      1425.7308      1860.848      -4.0393429    
  24870000   300.04797     -2718.8547      1434.8547      1846.3511     -8.5767287    
  24875000   300.77202     -2693.8248      1446.138       1890.2181     -5.347404     
  24880000   296.68848     -2654.2395      1424.6699      1865.7324      6.1824481    
  24885000   299.96302     -2686.9119      1488.7372      1931.29       -3.2512194    
  24890000   294.46081     -2665.9081      1495.3668      1901.5199      11.220921    
  24895000   294.83307     -2668.5711      1471.9545      1879.3283     -8.6425411    
  24900000   303.23429     -2660.1662      1409.8464      1913.2736     -6.0729907    
  24905000   302.87168     -2637.1792      1468.9822      1991.6133     -5.4683759    
  24910000   297.75705     -2642.801       1427.7407      1891.39       -8.107359     
  24915000   300.38305     -2647.6704      1462.0771      1948.2535      11.216212    
  24920000   299.69287     -2680.9056      1474.8757      1920.6164      17.009181    
  24925000   296.52936     -2689.4671      1429.8122      1833.9871      2.4751889    
  24930000   299.12492     -2681.3879      1478.8379      1918.171      -8.9357088    
  24935000   300.26942     -2687.7176      1442.3333      1887.2771      12.435884    
  24940000   304.04223     -2698.295       1398.3002      1872.0277      16.320333    
  24945000   295.56324     -2668.8345      1491.9504      1906.6784      25.383898    
  24950000   298.4387      -2696.9819      1440.9003      1857.4803      1.674536     
  24955000   301.51153     -2709.8387      1473.8958      1909.6772      17.525362    
  24960000   296.57227     -2695.6433      1487.3816      1885.828       0.25415281   
  24965000   300.63377     -2687.6635      1436.6023      1885.4014      15.761571    
  24970000   303.31443     -2726.3318      1390.9065      1829.0042      19.285147    
  24975000   300.89441     -2680.0875      1477.162       1936.2563      31.849643    
  24980000   303.97662     -2691.8337      1397.9651      1877.4694      35.751585    
  24985000   304.12147     -2666.4201      1451.8572      1958.2863      3.4819855    
  24990000   299.45519     -2681.8873      1473.0423      1915.3216      1.1191642    
  24995000   301.27773     -2666.4032      1446.9755      1923.7532      2.9411648    
  25000000   296.3877      -2680.2023      1469.1825      1881.1443      2.7197       
  25005000   298.61491     -2692.0792      1415.9994      1839.3203     -3.7918987    
  25010000   299.09589     -2679.5531      1403.8306      1844.6956      15.895068    
Loop time of 25281 on 18 procs for 25000000 steps with 3501 atoms

Performance: 2563.190 ns/day, 0.009 hours/ns, 988.885 timesteps/s
99.7% CPU use with 18 MPI tasks x 1 OpenMP threads

MPI task timing breakdown:
Section |  min time  |  avg time  |  max time  |%varavg| %total
---------------------------------------------------------------
Pair    | 423.85     | 1715.6     | 6775.8     |4458.5 |  6.79
Bond    | 190.07     | 287.09     | 593.72     | 698.5 |  1.14
Neigh   | 11384      | 11409      | 11451      |  23.9 | 45.13
Comm    | 5622.8     | 11291      | 12765      |1953.0 | 44.66
Output  | 9.9707     | 10.144     | 10.268     |   2.4 |  0.04
Modify  | 211.28     | 316.25     | 686        | 756.0 |  1.25
Other   |            | 251.6      |            |       |  1.00

Nlocal:          194.5 ave         451 max          90 min
Histogram: 2 8 2 3 1 0 0 0 0 2
Nghost:        5687.11 ave        6348 max        4680 min
Histogram: 1 1 0 2 2 3 1 2 4 2
Neighs:        2388.94 ave        9548 max         281 min
Histogram: 8 2 6 0 0 0 0 0 0 2
FullNghs:      4824.22 ave       19969 max         600 min
Histogram: 8 1 7 0 0 0 0 0 0 2

Total # of neighbors = 87023
Ave neighs/atom = 24.856612
Ave special neighs/atom = 3.5989717
Neighbor list builds = 2500000
Dangerous builds = 2500000
Total wall time: 7:01:26
