LAMMPS (23 Jun 2022)
OMP_NUM_THREADS environment is not set. Defaulting to 1 thread. (src/src/comm.cpp:98)
  using 1 OpenMP thread(s) per MPI task
Created orthogonal box = (0 0 0) to (150 150 150)
  2 by 3 by 3 MPI processor grid
Read molecule template lig:
  1 molecules
  0 fragments
  5 atoms with max type 2
  4 bonds with max type 1
  3 angles with max type 1
  0 dihedrals with max type 0
  0 impropers with max type 0
Created 1 atoms
  using box units in orthogonal box = (0 0 0) to (150 150 150)
  create_atoms CPU = 0.000 seconds
Created 3000 atoms
  using lattice units in orthogonal box = (0 0 0) to (150 150 150)
  create_atoms CPU = 0.003 seconds
Finding 1-2 1-3 1-4 neighbors ...
  special bond factors lj:    0        1        1       
  special bond factors coul:  0        0        0       
     2 = max # of 1-2 neighbors
     2 = max # of 1-3 neighbors
     2 = max # of 1-4 neighbors
     7 = max # of special neighbors
  special bonds CPU = 0.001 seconds
3000 atoms in group ligands
Generated 0 of 6 mixed pair_coeff terms from geometric mixing rule
Neighbor list info ...
  update every 1 steps, delay 10 steps, check yes
  max neighbors/atom: 2000, page size: 100000
  master list distance cutoff = 60
  ghost atom cutoff = 60
  binsize = 30, bins = 5 5 5
  1 neighbor lists, perpetual/occasional/extra = 1 0 0
  (1) pair lj/expand, perpetual
      attributes: half, newton on
      pair build: half/bin/newton
      stencil: half/bin/3d
      bin: standard
Setting up Verlet run ...
  Unit style    : real
  Current step  : 0
  Time step     : 30
Per MPI rank memory allocation (min/avg/max) = 8.329 | 8.352 | 8.375 Mbytes
   Step          Temp          E_pair         E_mol          TotEng         Press     
         0   0              9.7186893e+12  3.7351619e-25  9.7186893e+12  7.8980177e+11
     10000   141.98708     -945.44873      636.40922      960.67007     -1.28634      
Loop time of 4.04408 on 18 procs for 10000 steps with 3001 atoms

Performance: 6409.362 ns/day, 0.004 hours/ns, 2472.748 timesteps/s
99.7% CPU use with 18 MPI tasks x 1 OpenMP threads

MPI task timing breakdown:
Section |  min time  |  avg time  |  max time  |%varavg| %total
---------------------------------------------------------------
Pair    | 0.18355    | 0.32304    | 0.46408    |  12.8 |  7.99
Bond    | 0.066329   | 0.10039    | 0.1185     |   4.1 |  2.48
Neigh   | 1.6097     | 1.6132     | 1.6172     |   0.2 | 39.89
Comm    | 1.6366     | 1.8161     | 2.0222     |   7.2 | 44.91
Output  | 4.5808e-05 | 5.2182e-05 | 6.2419e-05 |   0.0 |  0.00
Modify  | 0.088964   | 0.12514    | 0.14932    |   4.1 |  3.09
Other   |            | 0.06616    |            |       |  1.64

Nlocal:        166.722 ave         199 max         128 min
Histogram: 2 1 0 3 2 0 4 2 2 2
Nghost:           4899 ave        5104 max        4674 min
Histogram: 2 1 1 3 1 2 3 2 1 2
Neighs:        1101.22 ave        1769 max         620 min
Histogram: 1 3 2 3 3 3 1 0 1 1

Total # of neighbors = 19822
Ave neighs/atom = 6.6051316
Ave special neighs/atom = 3.5988004
Neighbor list builds = 909
Dangerous builds = 0
1 atoms in group nps
600 atoms in group amines
Generated 0 of 6 mixed pair_coeff terms from geometric mixing rule
Neighbor list info ...
  update every 1 steps, delay 10 steps, check yes
  max neighbors/atom: 2000, page size: 100000
  master list distance cutoff = 60
  ghost atom cutoff = 60
  binsize = 30, bins = 5 5 5
  2 neighbor lists, perpetual/occasional/extra = 1 1 0
  (1) pair lj/expand, perpetual
      attributes: half, newton on
      pair build: half/bin/newton
      stencil: half/bin/3d
      bin: standard
  (2) compute coord/atom, occasional
      attributes: full, newton on
      pair build: full/bin
      stencil: full/bin/3d
      bin: standard
Setting up Verlet run ...
  Unit style    : real
  Current step  : 10000
  Time step     : 30
Per MPI rank memory allocation (min/avg/max) = 7.696 | 7.718 | 7.742 Mbytes
   Step          Temp          E_pair         E_mol          TotEng         Press     
     10000   141.98708     -945.44873      636.40922      960.67007     -1.28634      
     25000   300.1382      -1604.2153      1275.5134      2355.2631      1.7788327    
     50000   301.52242     -2582.8599      1286.0433      1399.5266     -23.139967    
     75000   298.58914     -2956.2711      1330.2092      1044.0506      24.139184    
    100000   299.19794     -3259.8811      1252.0583      667.73391      17.786652    
    125000   296.42841     -3537.996       1260.6537      373.44804      42.473796    
    150000   302.41145     -3687.9325      1218.6478      235.00851      18.109338    
    175000   289.94691     -3923.0471      1252.6253     -77.591929     -5.7318456    
    200000   307.46119     -4064.8824      1250.9951     -64.437084      6.4521469    
    225000   300.3221      -4188.1007      1231.6009     -270.89041     -20.275967    
    250000   305.53243     -4223.2646      1276.8091     -214.25306      19.178263    
    275000   303.96006     -4347.8307      1220.4284     -409.26072     -19.599302    
    300000   299.89813     -4389.226       1236.3113     -471.09665     -3.5404483    
    325000   299.45609     -4467.8195      1210.8558     -579.09854      20.46102     
    350000   306.49543     -4526.3726      1248.9308     -536.62777      19.755509    
    375000   298.20096     -4646.259       1204.8682     -774.74959      33.744001    
    400000   298.11113     -4716.2691      1258.2798     -792.1513       3.852741     
    425000   301.22037     -4785.3427      1226.8234     -864.87713      22.762023    
    450000   295.54133     -4816.0243      1240.0796     -933.08694     -0.54418201   
    475000   300.20829     -4826.2329      1245.9882     -895.65304     -16.600495    
    500000   298.75985     -4845.1247      1182.7796     -990.70601     -13.916748    
    525000   304.14148     -4876.9991      1252.6117     -904.62345     -4.8162398    
    550000   301.45314     -4892.5616      1230.434      -966.40395      1.3572622    
    575000   304.71635     -4946.2144      1192.9269     -1028.3828     -8.7002256    
    600000   301.27182     -4996.4367      1176.2353     -1126.0993      16.585443    
    625000   300.85221     -4971.0931      1216.1061     -1064.6371      11.06759     
    650000   303.41015     -4997.1704      1242.0696     -1041.8768      7.3114571    
    675000   302.1539      -5053.6193      1194.4723     -1157.1569     -0.41990776   
    700000   305.73327     -5045.5247      1190.7332     -1120.793      -16.858644    
    725000   306.30584     -5095.9428      1207.9425     -1148.8817      16.119003    
    750000   301.8653      -5105.2983      1197.6991     -1208.1899      75.578166    
    775000   301.47807     -5175.9445      1147.4194     -1332.5784     -12.4363      
    800000   296.33076     -5175.7236      1213.6527     -1312.1537     -21.850518    
    825000   309.78073     -5147.1508      1201.7464     -1175.2119      5.9281061    
    850000   298.9775      -5208.2146      1259.4275     -1275.2016      3.1154916    
    875000   297.99464     -5208.8767      1225.1151     -1318.9653     -12.944405    
    900000   307.46299     -5231.529       1250.9585     -1231.1042      21.021928    
    925000   304.31898     -5196.7637      1176.6041     -1298.8084     -30.029711    
    950000   301.53989     -5206.2064      1236.0712     -1273.6359      5.6221662    
    975000   297.09243     -5251.3586      1209.2563     -1385.3739     -11.640328    
   1000000   306.54987     -5268.4521      1234.8821     -1292.2691      6.7779989    
   1025000   304.10126     -5306.7397      1172.9785     -1414.3569      44.123692    
   1050000   303.30087     -5274.42        1201.3703     -1360.8029      9.5759241    
   1075000   298.78007     -5286.4753      1190.1868     -1424.4686     -19.590888    
   1100000   293.14524     -5344.1182      1199.6941     -1522.9933     -39.954971    
   1125000   304.54086     -5357.1165      1215.5854     -1418.1957      21.254739    
   1150000   297.90865     -5372.0699      1205.0752     -1502.9674      1.7379523    
   1175000   300.92686     -5334.5602      1186.1051     -1457.4376      2.8176857    
   1200000   292.14433     -5359.3126      1172.3954     -1574.4368      4.1571527    
   1225000   310.56661     -5396.8401      1186.1873     -1433.4326      29.893489    
   1250000   310.76927     -5409.8869      1178.4204     -1452.434       6.0631069    
   1275000   299.34794     -5429.6155      1197.8866     -1554.8308      28.900906    
   1300000   301.0663      -5460.6725      1209.0519     -1559.3562     -14.65098     
   1325000   307.02535     -5457.5578      1190.1932     -1521.8119      20.0816      
   1350000   296.30169     -5415.1693      1240.788      -1524.7241     -23.095971    
   1375000   295.04675     -5481.829       1217.8433     -1625.5508     -40.329749    
   1400000   296.63713     -5501.1756      1229.8651     -1618.6537      9.7992516    
   1425000   297.40926     -5511.5695      1185.4327     -1666.5752     -12.7447      
   1450000   296.02945     -5513.779       1162.1733     -1704.383      -3.1139891    
   1475000   300.67119     -5529.1013      1227.7974     -1612.5728      31.27557     
   1500000   294.4658      -5514.887       1225.9749     -1655.6723     -6.0091527    
   1525000   302.4379      -5520.2096      1220.2929     -1595.387       16.046375    
   1550000   296.72785     -5556.595       1209.6754     -1693.4515      2.3593786    
   1575000   292.51225     -5560.6744      1144.5235     -1800.3805     -16.6756      
   1600000   295.3906      -5536.9453      1156.0281     -1739.4074      12.803599    
   1625000   299.59578     -5535.8058      1147.9103     -1708.7811      11.342704    
   1650000   305.01106     -5601.0553      1161.7843     -1711.7309     -7.7944233    
   1675000   296.32565     -5583.6618      1144.4228     -1789.3676     -0.89497171   
   1700000   295.64057     -5588.4486      1131.82       -1812.8835     -11.683259    
   1725000   293.77709     -5619.8608      1196.6013     -1796.1783      20.724537    
   1750000   301.04156     -5605.1588      1203.0557     -1710.06        46.080558    
   1775000   298.31692     -5573.2455      1225.7034     -1679.8639      20.423934    
   1800000   300.83047     -5623.0258      1119.3277     -1813.5427     -18.416613    
   1825000   296.9838      -5657.3316      1189.1133     -1812.4614     -27.527939    
   1850000   298.67904     -5649.6551      1220.6698     -1758.0689     -9.5675397    
   1875000   301.29764     -5615.6726      1176.9724     -1744.3671      19.337044    
   1900000   307.56865     -5688.5229      1203.818      -1734.2937      26.712441    
   1925000   302.80873     -5669.1396      1184.5687     -1776.725       12.01508     
   1950000   299.59021     -5696.7946      1179.4284     -1838.3017      27.851554    
   1975000   300.54905     -5660.3099      1195.4089     -1777.2622     -47.76858     
   2000000   293.86156     -5719.712       1181.392      -1910.4835      23.275523    
   2025000   301.41964     -5670.5047      1157.4991     -1817.5816      27.365167    
   2050000   298.0536      -5690.2031      1182.4789     -1842.4006      1.6950642    
   2075000   295.48831     -5744.6644      1222.9701     -1879.3107      9.7488094    
   2100000   306.80973     -5684.1236      1174.9746     -1765.5244      19.649025    
   2125000   293.40562     -5729.7557      1176.2573     -1929.7391      19.992391    
   2150000   302.8283      -5728.3633      1165.6176     -1854.7248      7.4100166    
   2175000   298.51474     -5715.557       1192.8425     -1853.2673     -22.879026    
   2200000   295.66475     -5741.1816      1188.7466     -1908.4736     -21.422759    
   2225000   300.09748     -5730.9024      1167.4138     -1879.8879      3.5288136    
   2250000   302.95263     -5712.4851      1180.2463     -1823.106       8.4775539    
   2275000   294.59009     -5693.9995      1159.1892     -1900.4589      24.547598    
   2300000   294.41937     -5696.0559      1165.3835     -1897.8477      5.1801707    
   2325000   293.64561     -5704.0733      1217.7099     -1860.458      -7.3352877    
   2350000   296.46811     -5694.8391      1182.7414     -1860.9523      18.252079    
   2375000   288.59809     -5709.3602      1278.1117     -1850.4803      28.126256    
   2400000   305.85858     -5729.7881      1195.8792     -1798.7899     -4.9263976    
   2425000   301.007       -5714.8019      1129.156      -1893.9118      33.690005    
   2450000   299.9061      -5742.5339      1171.5813     -1889.0633      24.980127    
   2475000   300.1904      -5744.0004      1192.7291     -1866.8397     -24.245913    
   2500000   300.79887     -5783.9003      1160.3348     -1933.6926      14.238247    
   2525000   306.68258     -5735.0897      1185.2959     -1807.3063      26.996193    
   2550000   302.03451     -5754.8526      1211.3688     -1842.5612      9.9069439    
   2575000   299.83886     -5754.6834      1148.9868     -1924.4085      10.121132    
   2600000   307.15908     -5747.8118      1192.5989     -1808.4643     -18.531144    
   2625000   301.99956     -5729.893       1197.1768     -1832.1062      20.592524    
   2650000   300.59086     -5752.7963      1165.6957     -1899.0879     -5.8920274    
   2675000   308.18456     -5751.6783      1180.7657     -1814.9937      14.784862    
   2700000   302.88354     -5732.8862      1178.6671     -1845.7042      15.789019    
   2725000   300.67341     -5773.0629      1177.7346     -1906.5774      19.006912    
   2750000   299.80125     -5755.634       1186.8609     -1887.8213      30.331085    
   2775000   300.62121     -5759.3553      1186.3707     -1884.7004      27.527388    
   2800000   291.01942     -5788.4845      1181.6632     -2004.4005     -12.173442    
   2825000   300.40041     -5786.4088      1185.4982     -1914.6009      17.557498    
   2850000   300.33696     -5780.7555      1131.0351     -1963.9782      20.185647    
   2875000   302.20107     -5781.4892      1179.8746     -1899.2027      10.66553     
   2900000   295.17261     -5797.1807      1204.6611     -1952.9591     -27.793165    
   2925000   298.11846     -5802.2039      1193.9109     -1942.3894      33.726422    
   2950000   294.88719     -5802.3759      1185.9168     -1979.451       2.2705647    
   2975000   299.30992     -5778.2306      1136.4399     -1965.2327      18.017163    
   3000000   305.72061     -5766.4636      1165.3041     -1867.2742      1.7377702    
   3025000   304.56155     -5794.089       1179.0011     -1891.5675     -7.1760788    
   3050000   306.0507      -5793.7558      1192.5503     -1864.3685      10.381389    
   3075000   297.9476      -5795.9065      1184.4003     -1947.1306      2.6166908    
   3100000   296.17203     -5811.4042      1177.3468     -1985.5597     -21.630727    
   3125000   298.68231     -5831.7232      1164.5285     -1996.249       1.3859747    
   3150000   306.62716     -5828.9978      1176.8337     -1910.1722     -17.046806    
   3175000   298.49412     -5830.9032      1213.5598     -1948.0806      29.783838    
   3200000   302.7287      -5836.3736      1174.6419     -1954.6014     -26.663199    
   3225000   299.61175     -5844.0162      1218.5283     -1946.2307     -3.9985419    
   3250000   291.34939     -5850.4438      1232.7154     -2012.3568      1.6808527    
   3275000   299.02614     -5876.5429      1207.8829     -1994.6397      30.37484     
   3300000   306.15546     -5895.4625      1139.3392     -2018.3494     -13.989356    
   3325000   296.09734     -5860.5509      1174.1889     -2038.5322      11.98187     
   3350000   300.37327     -5845.2694      1190.5223     -1968.6802     -13.80218     
   3375000   297.83601     -5857.972       1142.8636     -2051.7307     -16.081288    
   3400000   312.77791     -5818.5063      1195.6792     -1825.8325     -7.6257123    
   3425000   302.84458     -5853.8743      1196.6649     -1949.0428     -23.951245    
   3450000   299.94063     -5879.6003      1198.8161     -1998.5861      3.3592817    
   3475000   296.21987     -5858.4334      1170.3211     -2039.1868      13.399687    
   3500000   295.45173     -5879.3411      1162.2925     -2074.9922      8.4838474    
   3525000   311.09881     -5860.1343      1200.5636     -1877.5914     -24.317844    
   3550000   306.86089     -5866.4235      1166.8323     -1955.5092      16.736504    
   3575000   299.55075     -5868.969       1159.8194     -2030.438      -36.946908    
   3600000   293.43821     -5881.6682      1184.1691     -2073.4485     -4.350184     
   3625000   306.28217     -5847.0353      1169.0569     -1939.0715     -36.892396    
   3650000   299.16629     -5891.1198      1187.1191     -2028.7271     -19.866464    
   3675000   297.12442     -5871.287       1186.6612     -2027.6115     -13.910977    
   3700000   301.58923     -5899.1553      1172.145      -2030.0696     -26.370737    
   3725000   302.56174     -5908.0319      1199.3041     -2003.0906      64.089639    
   3750000   302.12334     -5870.3919      1199.4501     -1969.225      -1.7745485    
   3775000   300.67215     -5882.6506      1188.787      -2005.124      -37.870399    
   3800000   303.99109     -5899.5961      1210.8657     -1970.3114      18.527123    
   3825000   302.59764     -5876.4596      1180.6505     -1989.8509      42.086233    
   3850000   299.79873     -5887.2669      1196.7067     -2009.631      -9.9202831    
   3875000   300.01498     -5894.1765      1174.4304     -2036.8831     -0.42120515   
   3900000   301.03956     -5887.7399      1148.3534     -2047.3612     -6.2990476    
   3925000   295.29414     -5882.1401      1164.2348     -2077.258      -10.828784    
   3950000   301.16332     -5863.3473      1172.611      -1997.6044      24.341056    
   3975000   300.31518     -5847.5109      1214.4465     -1947.517      -23.340213    
   4000000   302.87311     -5904.4984      1166.6192     -2029.4575      16.768578    
   4025000   301.25885     -5909.3282      1137.3785     -2077.9634      12.454853    
   4050000   294.98301     -5920.4645      1192.024      -2090.5755      49.816167    
   4075000   304.24633     -5922.15        1232.3502     -1969.0983      14.988469    
   4100000   306.02902     -5911.8678      1183.129      -1992.0957     -7.8261595    
   4125000   302.57992     -5922.0869      1217.2421     -1999.045       12.347427    
   4150000   302.87863     -5933.4286      1161.4748     -2063.4829     -10.260327    
   4175000   302.4488      -5904.325       1168.8816     -2030.8162      10.334139    
   4200000   299.90378     -5929.0013      1190.7856     -2056.3472     -2.3199594    
   4225000   297.30115     -5939.9655      1147.9197     -2133.451      -16.261896    
   4250000   299.90517     -5945.0131      1169.7007     -2093.4314     -0.18900224   
   4275000   299.10106     -5915.8422      1199.4564     -2041.6955      2.0174882    
   4300000   291.68393     -5929.8131      1200.3811     -2121.0689     -13.457821    
   4325000   297.66644     -5893.197       1196.1846     -2035.1511     -2.3736926    
   4350000   312.18386     -5934.779       1175.3539     -1967.7428      3.4943911    
   4375000   299.61171     -5901.8846      1140.1038     -2082.524       13.270599    
   4400000   301.78654     -5897.006       1149.3579     -2048.943       3.4774766    
   4425000   295.19675     -5901.0514      1155.7394     -2105.5357     -7.5984014    
   4450000   304.39033     -5903.1528      1182.2938     -1998.8697     -19.397896    
   4475000   292.46847     -5932.048       1171.5078     -2145.1613     -4.839641     
   4500000   291.34059     -5924.8996      1133.6845     -2185.9223      38.58364     
   4525000   300.3978      -5923.4079      1188.4594     -2048.6621      18.575362    
   4550000   297.54238     -5924.363       1172.7392     -2090.8718      42.18059     
   4575000   301.06308     -5902.5358      1194.88       -2015.4203     -25.81221     
   4600000   306.26663     -5903.4374      1123.2788     -2041.3906      25.948305    
   4625000   302.8701      -5895.2835      1164.3391     -2022.5496      0.20566425   
   4650000   300.05359     -5914.9899      1157.4137     -2074.368       4.7476231    
   4675000   303.01688     -5902.0461      1149.1974     -2043.1413     -20.056539    
   4700000   297.71963     -5895.4122      1173.8382     -2059.2371      9.5074253    
   4725000   295.3114      -5894.6065      1153.7607     -2100.0442      9.4251333    
   4750000   303.05162     -5931.4616      1176.7451     -2044.6984      7.0946498    
   4775000   306.69239     -5899.7946      1199.0971     -1958.1223     -1.6783462    
   4800000   301.65191     -5938.3328      1162.0445     -2078.7872      10.843749    
   4825000   305.08013     -5961.9795      1185.1062     -2048.7155     -3.4581035    
   4850000   301.52766     -5941.3672      1178.9673     -2066.0099      25.873388    
   4875000   301.00937     -5920.7105      1171.2242     -2057.731      -4.4414039    
   4900000   303.92555     -5935.0941      1171.2204     -2046.0407      12.565373    
   4925000   306.09736     -5951.3798      1169.4274     -2044.6982      0.20091466   
   4950000   306.63067     -5929.4501      1205.6464     -1981.7803      10.937033    
   4975000   297.90922     -5941.0922      1206.304      -2070.7558     -2.0733062    
   5000000   296.95647     -5911.4421      1168.0723     -2087.8573      26.610076    
   5025000   292.49871     -5923.8411      1209.4238     -2098.7679      4.1418308    
   5050000   296.04839     -5885.5869      1201.0813     -2037.1136     -16.899686    
   5075000   298.80338     -5943.9118      1141.8822     -2130.0012      17.522505    
   5100000   304.13816     -5948.3948      1266.9585     -1961.7019      28.513404    
   5125000   301.8749      -5935.283       1169.0103     -2066.7775      6.5112362    
   5150000   299.89801     -5967.8718      1173.2085     -2112.8463      21.471514    
   5175000   301.52622     -5936.864       1187.5603     -2052.9265     -21.526829    
   5200000   304.36929     -5949.351       1190.5812     -2036.9687      33.919926    
   5225000   295.48086     -5963.4155      1172.7323     -2148.3662      23.693999    
   5250000   300.81406     -5967.0502      1182.7012     -2094.3403     -26.420192    
   5275000   299.74383     -5958.3563      1165.9825     -2111.9356      37.487251    
   5300000   295.78806     -5982.1593      1191.9972     -2145.098       42.759511    
   5325000   299.92164     -5966.8936      1184.9056     -2099.9597     -0.19085831   
   5350000   298.27579     -5958.4401      1144.2691     -2146.8606     -30.212461    
   5375000   292.61197     -5947.3589      1213.5806     -2117.1161     -30.697254    
   5400000   296.82336     -5926.1346      1161.2049     -2110.6076     -12.973707    
   5425000   293.39508     -5932.7784      1188.327      -2120.7864      0.61556448   
   5450000   301.70265     -5970.3664      1150.5033     -2121.9082      21.965449    
   5475000   295.46057     -5975.9131      1183.1693     -2150.6083     -13.961194    
   5500000   298.39203     -5941.7553      1153.9962     -2119.4092     -9.7847598    
   5525000   296.90201     -6003.152       1194.636      -2153.4906      22.486264    
   5550000   300.85139     -5977.7297      1165.2067     -2122.1804     -17.028105    
   5575000   302.08337     -5952.0934      1152.253      -2098.481       24.299497    
   5600000   297.9449      -5954.0492      1174.0526     -2115.6452      19.321754    
   5625000   298.05089     -6010.1625      1151.777      -2193.0863      9.0434858    
   5650000   302.92643     -5938.2785      1170.7409     -2058.6391      23.25642     
   5675000   298.46899     -5972.6461      1147.8288     -2155.7792     -16.370946    
   5700000   297.61328     -5950.2232      1207.8347     -2081.0025     -44.449073    
   5725000   298.5089      -5969.5185      1182.3337     -2117.7898      24.633593    
   5750000   301.1398      -5956.2149      1198.8119     -2064.4814      14.031311    
   5775000   299.94145     -5938.1444      1134.3269     -2121.612       35.792457    
   5800000   303.58103     -5928.6752      1146.2991     -2067.624       15.515277    
   5825000   298.43496     -5939.0628      1169.6906     -2100.6383     -18.707219    
   5850000   294.83761     -5926.4986      1172.5904     -2117.3435      3.3788289    
   5875000   298.42554     -5957.3161      1169.1586     -2119.508      -18.528348    
   5900000   291.33013     -5947.2075      1209.1631     -2132.8451     -22.469771    
   5925000   291.21391     -5936.8503      1147.5565     -2185.1338     -10.774829    
   5950000   307.95013     -5981.9143      1128.9874     -2099.1044      0.093601658  
   5975000   303.7106      -5972.5548      1167.1925     -2089.4514     -3.1614517    
   6000000   299.58163     -5976.5616      1134.5347     -2163.0392     -32.184951    
   6025000   305.65717     -5929.6009      1157.2612     -2039.0218     -11.681017    
   6050000   302.18703     -5970.9463      1181.2061     -2087.4538      9.5777639    
   6075000   310.6393      -5948.5888      1232.522      -1938.1966     -21.471962    
   6100000   293.70232     -5931.6529      1123.7837     -2181.4568      5.424545     
   6125000   295.79704     -5996.1486      1199.1116     -2151.8926     -53.485051    
   6150000   298.45048     -5979.877       1133.6012     -2177.4032     -7.325408     
   6175000   289.88791     -5963.6121      1220.7532     -2150.5566     -1.4899624    
   6200000   302.83842     -5945.8809      1176.4311     -2061.3384      2.0156858    
   6225000   299.71362     -5961.8167      1155.3913     -2126.2573     -18.19433     
   6250000   296.35327     -5978.2996      1170.4137     -2157.7675      7.6760323    
   6275000   297.41557     -5954.3392      1151.7898     -2142.9315      46.9705      
   6300000   300.2804      -5974.2669      1155.2546     -2133.7758      5.0049996    
   6325000   301.92848     -5995.4483      1169.8884     -2125.5856      3.4195662    
   6350000   297.59497     -5956.4132      1171.7054     -2123.4856      5.2949862    
   6375000   302.57558     -6010.093       1155.0228     -2149.3092     -20.284408    
   6400000   302.43005     -6006.9533      1175.2814     -2127.2123      2.7481312    
   6425000   307.87284     -6018.5576      1155.7989     -2109.6273     -3.71017      
   6450000   295.34439     -5983.1585      1118.0414     -2224.0207      27.991171    
   6475000   301.31774     -5972.0497      1215.3276     -2062.2092      18.713302    
   6500000   295.81655     -5992.7507      1168.436      -2178.9959      27.742937    
   6525000   297.07622     -6015.5266      1176.8774     -2182.0659     -4.6736912    
   6550000   299.7861      -5986.5533      1173.4417     -2132.2953      9.0223875    
   6575000   303.63507     -6008.072       1143.3761     -2149.4605     -8.4399718    
   6600000   295.40071     -5995.8396      1168.4731     -2185.7663     -14.35697     
   6625000   297.69703     -5974.5618      1195.7816     -2116.6453      3.4308243    
   6650000   304.63709     -6036.4595      1213.0804     -2099.1833      5.9758893    
   6675000   300.12392     -6005.0962      1210.2232     -2111.0358     -19.105486    
   6700000   298.37301     -6047.449       1171.7716     -2207.4976     -0.27801913   
   6725000   301.79196     -6036.3514      1195.1125     -2142.4854      17.453447    
   6750000   299.73678     -6001.2133      1157.5969     -2163.2412     -24.909196    
   6775000   307.50351     -6012.6302      1198.8475     -2063.9541     -18.634944    
   6800000   301.65511     -6004.9763      1176.3052     -2131.1414     -4.8979916    
   6825000   300.85403     -5989.9864      1177.8553     -2121.765       7.8459904    
   6850000   299.16538     -5984.2654      1193.6185     -2115.3814      50.391186    
   6875000   304.5681      -5970.9562      1159.4853     -2087.8919     -22.874077    
   6900000   302.05283     -6004.48        1164.3664     -2139.0273     -34.284635    
   6925000   293.29396     -6012.9341      1203.1428     -2187.0306      10.909554    
   6950000   299.6213      -5991.8472      1155.5084     -2156.9963     -45.307174    
   6975000   308.54823     -6011.6553      1154.6674     -2097.817      -5.2989928    
   7000000   294.61687     -6018.6448      1122.6026     -2261.4513     -9.5643361    
   7025000   305.56012     -6032.1792      1182.7638     -2116.9654     -1.5591573    
   7050000   304.90801     -5992.1156      1173.3725     -2092.1245      5.4291034    
   7075000   297.02891     -6003.4866      1130.3793     -2216.947      -0.27263392   
   7100000   302.28377     -6007.23        1178.0547     -2126.0238      11.736702    
   7125000   293.30424     -5998.867       1178.2218     -2197.7925     -8.3039198    
   7150000   304.00008     -6000.78        1170.3608     -2111.9197     -11.234654    
   7175000   301.07998     -6005.6378      1147.7198     -2165.5313      11.969701    
   7200000   292.6233      -6027.5733      1159.1534     -2251.6565     -20.557376    
   7225000   307.4944      -5978.6816      1163.8752     -2065.0593      31.420843    
   7250000   300.03561     -6049.2355      1159.1509     -2207.0371      3.8744098    
   7275000   294.37035     -5988.8611      1199.3081     -2157.1667     -15.505507    
   7300000   298.57365     -5980.1234      1183.4393     -2126.71       -21.400536    
   7325000   296.90452     -6001.9861      1200.4829     -2146.4553      28.414313    
   7350000   294.25147     -6029.7479      1144.5856     -2253.8391      15.428996    
   7375000   292.37045     -5967.3144      1182.2622     -2170.5499      27.917785    
   7400000   299.34993     -5992.6781      1169.273      -2146.4893      12.059148    
   7425000   298.94917     -6033.7058      1201.2732     -2159.1006      7.1987419    
   7450000   297.20321     -5990.5789      1197.8137     -2135.0462     -4.1843548    
   7475000   297.34947     -5953.1483      1153.4573     -2140.6641     -4.8777465    
   7500000   302.56216     -5988.9222      1171.3902     -2111.8911      25.908585    
   7525000   302.97285     -5999.0346      1172.1217     -2117.5994     -7.9899977    
   7550000   308.86823     -5971.1609      1159.6897     -2049.4387      27.370923    
   7575000   296.61436     -5977.1117      1165.9901     -2158.6684     -13.512933    
   7600000   302.42893     -5981.3614      1156.288      -2120.6238     -15.291042    
   7625000   301.47353     -5980.4862      1193.1965     -2091.3836     -21.834579    
   7650000   303.00743     -6000.0169      1167.1648     -2123.2292      13.212656    
   7675000   305.93269     -5992.4969      1162.9338     -2093.7814      26.000644    
   7700000   293.19893     -5995.4107      1168.6009     -2204.8988     -4.8868389    
   7725000   301.73646     -5958.5021      1196.0366     -2064.2083      8.5550045    
   7750000   302.83345     -5986.0193      1235.9032     -2042.0491      25.645591    
   7775000   310.50347     -5943.7367      1207.7622     -1959.3189     -2.3304431    
   7800000   297.21155     -5967.0467      1146.7612     -2162.4919      15.093819    
   7825000   293.15538     -5959.1176      1159.5923     -2178.0039      15.235099    
   7850000   301.79104     -5981.0718      1161.5828     -2120.7437     -4.0278268    
   7875000   313.6214      -5968.4989      1119.3211     -2044.6403      1.5487936    
   7900000   298.20932     -5980.7311      1159.3951     -2154.62        28.714742    
   7925000   297.35658     -5975.5476      1140.3287     -2176.1285     -18.417902    
   7950000   301.4337      -6014.6912      1163.3621     -2155.7793     -6.3499655    
   7975000   299.3148      -6021.1187      1160.19       -2184.3271      44.938474    
   8000000   297.55461     -6043.8299      1145.7856     -2237.1829     -9.038859     
   8025000   302.06004     -6017.5657      1187.2463     -2129.1686      0.5575962    
   8050000   307.06151     -5984.2831      1206.3844     -2032.0226     -11.109821    
   8075000   296.42144     -5964.9593      1145.2537     -2168.9775     -26.314835    
   8100000   300.3432      -5979.6504      1188.4005     -2105.4518     -9.8904034    
   8125000   295.7733      -6027.145       1183.0052     -2199.2078      11.866171    
   8150000   298.91986     -5993.0844      1135.82       -2184.1944     -15.093273    
   8175000   305.91749     -6033.6139      1139.287      -2158.6812      25.460638    
   8200000   295.59857     -6011.9477      1208.8357     -2159.7424      26.439681    
   8225000   292.62764     -6061.3802      1179.6843     -2264.8937      1.1590594    
   8250000   303.56461     -6051.6069      1186.3194     -2150.6821      20.708044    
   8275000   294.42635     -6042.1055      1175.9955     -2233.2229     -5.3160286    
   8300000   302.015       -6045.4886      1161.3054     -2183.4352     -9.2121744    
   8325000   299.38684     -6027.9685      1133.7184     -2217.0042      1.4351815    
   8350000   300.52189     -6075.2818      1166.4871     -2221.3987     -1.7947348    
   8375000   296.12698     -6063.1591      1148.2297     -2266.8346     -31.518317    
   8400000   298.12921     -6052.6453      1252.47       -2134.1758      6.0115765    
   8425000   306.89051     -6032.0535      1173.8032     -2113.9034     -8.2972859    
   8450000   296.78635     -6057.7418      1154.7552     -2248.9955      3.454797     
   8475000   302.02288     -6056.685       1184.5752     -2171.2912     -20.787779    
   8500000   300.51133     -6045.1042      1197.5375     -2160.2652     -20.246104    
   8525000   287.94866     -6044.0917      1146.9299     -2322.201      -29.461029    
   8550000   297.65449     -6031.9361      1129.1316     -2241.0499     -10.489109    
   8575000   294.4683      -6049.67        1191.8291     -2224.5787     -22.496038    
   8600000   298.48147     -6042.4846      1175.519      -2197.816       25.887689    
   8625000   299.49364     -6034.6406      1163.2517     -2193.1879     -18.746658    
   8650000   303.74297     -6028.1853      1195.3365     -2116.6485      10.174596    
   8675000   302.45922     -6035.3719      1135.6783     -2194.9731      15.746984    
   8700000   296.19829     -6039.1746      1167.1232     -2223.3189     -49.804551    
   8725000   300.71948     -6069.1162      1162.8358     -2217.1174     -25.286216    
   8750000   302.90995     -6055.3401      1150.7099     -2195.8791      17.112212    
   8775000   301.38811     -6054.9787      1153.0773     -2206.7593     -5.3773864    
   8800000   299.68285     -6064.5221      1206.3676     -2178.2615     -2.7829916    
   8825000   302.21932     -6060.5851      1151.3466     -2206.6634      43.765129    
   8850000   303.49576     -6034.9631      1190.3942     -2130.5793      3.709042     
   8875000   299.99206     -6043.0201      1201.425      -2158.937       14.614315    
   8900000   302.74153     -6025.4062      1168.3286     -2149.8325      22.975819    
   8925000   302.73833     -6060.4825      1181.8657     -2171.4004     -3.4987867    
   8950000   310.01627     -6030.5406      1155.0039     -2103.2378     -29.975591    
   8975000   299.48623     -6017.2235      1143.38       -2195.7088      11.123163    
   9000000   296.08519     -6053.8667      1188.1302     -2218.0154      18.867783    
   9025000   301.27302     -6040.3625      1179.1683     -2167.0813     -23.844645    
   9050000   307.33157     -6022.3226      1167.1975     -2106.834       15.81107     
   9075000   307.80701     -6047.1329      1149.9482     -2144.6419     -17.525495    
   9100000   307.38331     -6000.3883      1131.7819     -2119.8526      3.7722873    
   9125000   302.12551     -6014.2817      1184.7645     -2127.7809      27.769596    
   9150000   293.6684      -5995.3945      1175.4297     -2193.8556     -9.1316446    
   9175000   300.51217     -6000.755       1169.3919     -2144.0541     -11.120017    
   9200000   303.26621     -6034.109       1124.7534     -2197.4186     -20.708213    
   9225000   305.71199     -6013.5303      1165.0637     -2114.6585     -9.6855873    
   9250000   302.21541     -6027.2459      1155.1173     -2169.5883     -13.783603    
   9275000   303.16518     -6017.8132      1192.9559     -2113.8238      18.35847     
   9300000   294.38247     -6017.8741      1164.5416     -2220.8378      8.5898819    
   9325000   301.13877     -5986.142       1148.9843     -2144.2453      8.2084165    
   9350000   298.58703     -6034.5919      1192.2396     -2172.2586      3.9011391    
   9375000   304.24633     -6022.4704      1159.8439     -2141.9249     -11.877842    
   9400000   295.83914     -6026.1596      1180.6281     -2200.0106      13.036072    
   9425000   298.02732     -6052.8765      1167.95       -2219.838      -41.919372    
   9450000   295.68028     -5978.3165      1188.5557     -2145.6606     -4.7936548    
   9475000   300.5178      -6007.1866      1181.4785     -2138.3487      5.8720641    
   9500000   307.55612     -5989.7307      1171.199      -2068.2326      15.870486    
   9525000   296.919       -6038.5259      1181.9579     -2201.3906      3.097233     
   9550000   305.94553     -6012.4449      1168.9753     -2107.5731     -7.722835     
   9575000   300.8446      -5986.3936      1191.3484     -2104.7633      19.450714    
   9600000   301.12679     -6025.8619      1183.7994     -2149.2573      17.041601    
   9625000   293.4823      -6028.2086      1141.929      -2261.8346     -7.6382626    
   9650000   300.01959     -6017.9285      1104.8003     -2230.224      -7.3597363    
   9675000   301.26225     -6020.3166      1185.4016     -2140.8983     -13.59664     
   9700000   300.5301      -6039.4849      1159.9055     -2192.11        1.8402594    
   9725000   299.8816      -6005.4691      1146.8921     -2176.9067     -0.43754383   
   9750000   300.21661     -6006.1435      1203.3196     -2118.1578      3.1962604    
   9775000   298.72417     -5994.5681      1169.9805     -2153.2676      24.711102    
   9800000   301.80767     -5995.2968      1163.525      -2132.8778     -8.747282     
   9825000   298.07664     -6009.2255      1131.0328     -2212.6632     -45.749084    
   9850000   296.86265     -5989.7841      1173.4305     -2161.6801      19.858912    
   9875000   299.80583     -5950.704       1164.5982     -2105.1131      20.54774     
   9900000   299.49216     -5951.3939      1194.6072     -2078.5989     -17.993906    
   9925000   303.83496     -5968.9282      1176.4033     -2075.502      -2.0019679    
   9950000   302.23116     -5964.181       1164.0676     -2097.4324      22.61771     
   9975000   298.4309      -6006.7045      1144.3041     -2193.703      -5.5445695    
  10000000   301.57167     -5965.3781      1179.1187     -2089.4758     -23.747244    
  10025000   308.37295     -6014.7921      1174.9222     -2082.2664      32.346256    
  10050000   297.25351     -5992.2922      1155.9074     -2178.216       12.886497    
  10075000   302.8431      -5967.4687      1159.0353     -2100.2801      0.42494911   
  10100000   292.29418     -5973.815       1127.1633     -2232.8314     -13.865736    
  10125000   305.89784     -5979.442       1204.0166     -2039.9553      1.4789931    
  10150000   299.58417     -5982.1151      1184.4064     -2118.6981      2.178251     
  10175000   298.79154     -5941.6832      1175.574      -2094.1868     -14.634843    
  10200000   298.37903     -5960.4992      1173.0126     -2119.2529     -0.38994229   
  10225000   297.66308     -6002.0902      1176.9633     -2163.2956     -15.629979    
  10250000   305.292       -5979.75        1138.2441     -2111.4536      37.252825    
  10275000   301.22621     -5948.7501      1168.0844     -2086.9713     -30.636875    
  10300000   301.34797     -5984.1025      1237.9397     -2051.3796      13.382415    
  10325000   293.02252     -5977.4514      1166.9331     -2190.1849     -7.2611547    
  10350000   305.33806     -5980.741       1172.2237     -2078.0529     -13.534495    
  10375000   294.43637     -5995.7804      1175.5702     -2187.2336     -12.119968    
  10400000   305.55132     -6000.4424      1157.4747     -2110.5964      10.318499    
  10425000   298.96101     -5956.0305      1203.1515     -2079.4411     -1.6863386    
  10450000   308.08822     -5964.3503      1174.05       -2035.2429      3.8413761    
  10475000   301.49663     -5964.7568      1159.8322     -2108.812       19.066744    
  10500000   302.13143     -5946.1505      1205.6378     -2038.7234      5.3443276    
  10525000   304.09944     -5971.972       1154.0176     -2098.5664      8.1319605    
  10550000   303.34064     -5985.0617      1177.7467     -2094.7125      13.375797    
  10575000   295.46526     -5973.6749      1203.4805     -2128.017       12.063065    
  10600000   294.98189     -5960.9395      1161.2761     -2161.8084      27.387878    
  10625000   291.39461     -5959.7515      1209.1425     -2144.833       7.1266195    
  10650000   298.39406     -5981.3051      1165.2603     -2147.6769      6.8711591    
  10675000   302.40722     -5963.2777      1153.3995     -2105.6228      21.212251    
  10700000   295.10303     -5968.4077      1169.2953     -2160.1742      2.9311819    
  10725000   294.69486     -5981.507       1212.2596     -2133.9592      43.595857    
  10750000   300.65252     -5969.7441      1166.7544     -2114.4256      19.041309    
  10775000   305.46181     -5986.1165      1148.2231     -2106.3224     -19.959689    
  10800000   298.38071     -5957.3442      1130.7833     -2158.3122      9.3361816    
  10825000   299.10253     -5982.3984      1179.3611     -2128.3338      0.28884014   
  10850000   301.17979     -5971.0906      1179.0755     -2098.7359     -23.757235    
  10875000   298.09627     -5972.3166      1206.377      -2100.2345     -29.701528    
  10900000   301.29995     -6000.0359      1175.1946     -2130.4876     -6.0800015    
  10925000   298.78722     -5979.0498      1214.6694     -2092.4965      7.8663049    
  10950000   296.46693     -5974.1617      1182.4441     -2140.5827      28.633133    
  10975000   288.86862     -5982.9537      1194.581      -2205.1852      29.871277    
  11000000   299.65545     -5991.8275      1187.8696     -2124.31        12.018565    
  11025000   295.17473     -5991.3728      1189.8885     -2161.9049     -0.38680747   
  11050000   307.89351     -5959.776       1193.4841     -2012.9757      33.50549     
  11075000   291.44661     -6002.0864      1164.3185     -2231.5269      29.603813    
  11100000   295.20918     -6011.2905      1193.371      -2178.0321      4.7888108    
  11125000   296.29926     -5948.244       1205.3944     -2093.2141     -20.783345    
  11150000   304.84359     -5967.4203      1186.6258     -2054.7519     -6.0923925    
  11175000   302.28345     -5980.7939      1215.2279     -2062.4174      3.7667689    
  11200000   297.48155     -5948.6944      1187.6986     -2100.7879      17.699538    
  11225000   297.62359     -6005.7564      1179.846      -2164.4322      31.103544    
  11250000   292.90669     -6009.2482      1153.0294     -2236.9212      4.2995185    
  11275000   295.91824     -6005.1334      1153.5947     -2205.3106     -25.225001    
  11300000   306.09345     -5982.7486      1148.4928     -2097.0364      6.1779359    
  11325000   298.47528     -5988.8173      1118.514      -2201.2089      10.649179    
  11350000   301.14934     -5958.5628      1196.4881     -2069.0679     -2.1859359    
  11375000   296.77315     -5985.4842      1173.046      -2158.5649      5.5360896    
  11400000   299.03601     -6011.2629      1138.7765     -2198.3778     -15.619579    
  11425000   298.79956     -5980.5663      1149.6814     -2158.8907      0.81667338   
  11450000   300.19059     -6011.8227      1173.8374     -2153.5519      45.373802    
  11475000   298.07439     -6012.4019      1173.4628     -2173.4298     -11.383238    
  11500000   303.74585     -5982.091       1180.2759     -2085.589       20.244435    
  11525000   298.14586     -6006.1297      1139.1598     -2200.8213      6.1995776    
  11550000   296.36814     -6005.7929      1219.1955     -2136.3461      1.7583452    
  11575000   299.33399     -5984.7879      1176.1294     -2131.8852      21.430465    
  11600000   301.75634     -6006.3548      1231.4051     -2076.5146     -16.052478    
  11625000   301.90179     -6000.119       1210.1079     -2090.2754      3.8911121    
  11650000   304.56334     -5994.516       1169.6317     -2101.348       34.397357    
  11675000   304.63444     -5996.5645      1212.7641     -2059.6282      23.362942    
  11700000   303.33399     -5969.9318      1190.351      -2067.0377      14.987362    
  11725000   304.2455      -5982.4719      1145.6969     -2116.0809      6.7318733    
  11750000   294.14631     -6008.8682      1218.2676     -2160.2178      3.3401838    
  11775000   297.31329     -5979.4746      1186.9996     -2133.7717      12.26029     
  11800000   297.23421     -5981.6982      1163.179      -2160.523       46.874664    
  11825000   295.82926     -5995.354       1152.4235     -2197.498      -18.190189    
  11850000   300.4118      -5963.2291      1217.2894     -2059.5281     -24.589346    
  11875000   302.12974     -6014.624       1175.7472     -2137.1026     -3.285942     
  11900000   293.10011     -5989.9728      1175.9707     -2192.9749     -8.8457525    
  11925000   304.20401     -6008.7914      1177.3783     -2111.09        20.637003    
  11950000   296.65973     -6015.7556      1214.6364     -2148.2603      19.043794    
  11975000   295.79763     -6015.9291      1160.3458     -2210.4337      22.292074    
  12000000   301.41806     -6007.2271      1137.1177     -2174.6995      2.6635349    
  12025000   303.22221     -5971.0195      1162.1833     -2097.2927      3.4523575    
  12050000   295.67543     -6030.4762      1202.4841     -2183.9353      3.8762954    
  12075000   296.59814     -5992.3501      1156.3093     -2183.7326     -15.738629    
  12100000   299.94513     -6011.0373      1159.6918     -2169.1072      8.9312541    
  12125000   295.86031     -6019.1016      1148.7387     -2224.6528      8.7303702    
  12150000   298.86904     -6021.8187      1226.9326     -2122.2706     -7.4072384    
  12175000   298.20461     -5973.8508      1138.0794     -2169.0975      7.0551125    
  12200000   309.43027     -5993.365       1147.2987     -2079.0077     -0.19060386   
  12225000   304.80255     -6002.2152      1155.2813     -2121.2584      5.2981748    
  12250000   305.13974     -6015.8719      1173.1981     -2113.983      -23.597571    
  12275000   307.71112     -5982.7687      1164.5132     -2066.5702      10.170921    
  12300000   298.07605     -6016.1246      1208.3076     -2142.2927     -42.349347    
  12325000   297.64447     -6007.2119      1202.8667     -2142.6803     -10.134354    
  12350000   304.08526     -5998.6327      1180.884      -2098.4875      38.769335    
  12375000   296.52609     -6019.5869      1200.3539     -2167.5691     -2.0836401    
  12400000   297.34863     -5988.5435      1193.7875     -2135.7367      25.204289    
  12425000   296.62815     -5971.3731      1204.3521     -2114.4445     -31.688948    
  12450000   296.42193     -5985.0659      1161.1466     -2173.1868     -0.020231538  
  12475000   293.87753     -5975.0814      1197.7562     -2149.3459     -3.2265223    
  12500000   294.272       -5974.6733      1182.9899     -2160.1766     -7.1663229    
  12525000   295.04052     -5976.8855      1174.3037     -2164.2025      23.528303    
  12550000   290.11563     -5954.6222      1150.953      -2209.3305     -41.360847    
  12575000   300.52644     -5985.4523      1160.6737     -2137.3419      24.345367    
  12600000   307.54971     -5997.2853      1155.0615     -2091.982       16.814584    
  12625000   302.25896     -5988.0353      1121.9636     -2163.1421     -9.6945224    
  12650000   299.16723     -5979.4634      1145.5847     -2158.5966      59.909295    
  12675000   297.52888     -6008.3108      1104.1658     -2243.5137      24.752428    
  12700000   298.27419     -6019.1168      1101.2979     -2250.5228      10.83236     
  12725000   306.18406     -6016.2649      1142.8077     -2135.4276     -12.619844    
  12750000   299.72149     -6028.6443      1217.1247     -2131.281      -32.278775    
  12775000   297.64407     -6033.5731      1142.1707     -2229.7411     -9.0954721    
  12800000   306.1106      -6006.691       1160.4816     -2108.8367     -38.372101    
  12825000   299.97958     -6007.3705      1147.4305     -2177.3936     -9.0210781    
  12850000   296.09243     -6009.581       1188.2386     -2173.5565      14.624116    
  12875000   301.4266      -6000.1362      1213.8574     -2090.7924     -4.5060564    
  12900000   297.7475      -6031.2596      1129.2948     -2239.3786      23.384107    
  12925000   300.75224     -6014.6494      1210.96       -2114.2335     -4.4730619    
  12950000   298.03545     -5995.63        1209.9013     -2120.5675      54.704397    
  12975000   307.19282     -6000.3064      1198.4061     -2054.8499     -7.8066405    
  13000000   302.54206     -6015.9743      1180.1779     -2130.3351     -38.503741    
  13025000   300.58694     -5990.2224      1095.322      -2206.9228      9.6494614    
  13050000   302.75876     -6030.283       1184.412      -2138.472      -8.6997354    
  13075000   296.2745      -6017.5474      1150.9499     -2217.1835     -14.325761    
  13100000   299.41349     -5996.5856      1140.9903     -2178.111      -28.452721    
  13125000   304.78093     -6009.4578      1123.3812     -2160.5945      31.77931     
  13150000   303.23766     -5979.0135      1147.0249     -2120.307      -22.810251    
  13175000   299.21213     -5992.5524      1158.9956     -2157.8732     -44.082967    
  13200000   299.41447     -6001.5692      1170.7036     -2153.3726     -16.384308    
  13225000   305.06245     -5990.2556      1149.334      -2112.9219      16.274133    
  13250000   298.19501     -6004.473       1144.289      -2193.596      -25.772753    
  13275000   303.70183     -5959.756       1172.7459     -2071.1777      2.9199203    
  13300000   297.00581     -6022.949       1190.9871     -2176.0082     -16.780577    
  13325000   307.89106     -6019.5659      1152.8614     -2113.4102      9.278234     
  13350000   300.88856     -6000.2808      1167.022      -2142.5838      25.364769    
  13375000   299.5473      -5996.2943      1175.8923     -2141.7212      12.928086    
  13400000   301.67404     -5963.5055      1160.3964     -2105.4101      36.062823    
  13425000   297.37698     -5981.1774      1168.9758     -2152.9287      12.975897    
  13450000   297.71158     -5964.221       1193.444      -2108.5121     -3.0884666    
  13475000   297.71374     -6005.292       1132.0121     -2210.9956      42.009327    
  13500000   296.56517     -5967.1687      1178.7679     -2136.3875     -39.438935    
  13525000   293.39971     -5972.3275      1135.9203     -2212.7008     -14.327547    
  13550000   305.01091     -5948.6927      1199.5967     -2021.5573     -18.111665    
  13575000   301.42214     -5995.6307      1153.1202     -2147.0641     -2.9510594    
  13600000   299.19911     -5984.0649      1193.6493     -2114.8484     -4.6244865    
  13625000   298.30716     -5976.3724      1197.0444     -2111.737       34.503677    
  13650000   294.51823     -5999.0561      1186.9553     -2178.3922     -41.623169    
  13675000   312.25781     -5963.6659      1205.562      -1965.7603     -11.553134    
  13700000   303.84773     -5964.5754      1214.2388     -2033.1995      4.2053006    
  13725000   303.27042     -6015.5599      1179.7848     -2123.8005     -28.587893    
  13750000   298.30943     -5983.675       1160.2561     -2155.8077      36.372508    
  13775000   303.97025     -5971.0861      1177.4873     -2075.3661     -10.924892    
  13800000   303.46174     -5981.5963      1180.4489     -2087.462       0.33537374   
  13825000   294.99531     -5964.0125      1180.6012     -2145.4363     -7.5760576    
  13850000   290.66425     -6013.2672      1170.5751     -2243.4473      15.773886    
  13875000   297.03191     -5967.5445      1154.273      -2157.0844      5.5608354    
  13900000   299.51566     -5967.5972      1197.196      -2092.0033      21.173119    
  13925000   304.79393     -5960.0725      1189.1325     -2045.3416      9.5082462    
  13950000   300.15336     -5959.1852      1168.1801     -2106.9047      33.816474    
  13975000   301.58687     -5982.6571      1200.8238     -2084.9137      18.111956    
  14000000   296.21661     -5956.8073      1141.5651     -2166.3458      13.547227    
  14025000   299.79706     -5964.0204      1144.2231     -2138.883       23.658736    
  14050000   301.63878     -5943.0273      1174.5787     -2071.0649      29.87697     
  14075000   303.44155     -5948.2638      1233.8956     -2000.8633     -5.633306     
  14100000   294.58442     -5953.7364      1175.7239     -2143.7119      22.840392    
  14125000   295.71531     -5945.5495      1168.1667     -2132.9693     -3.9813677    
  14150000   302.26862     -5952.1897      1172.009      -2077.1648      20.19207     
  14175000   300.34008     -5953.4761      1146.6137     -2121.0922     -10.868142    
  14200000   297.9263      -5945.1502      1215.3108     -2065.6543     -4.9844662    
  14225000   301.30351     -5935.4277      1156.9555     -2084.0865      16.730503    
  14250000   302.80136     -5904.0655      1175.3146     -2020.9709     -7.9733895    
  14275000   303.96563     -5925.5631      1178.8048     -2028.5668     -18.30183     
  14300000   300.63894     -5930.5041      1181.2481     -2060.8133      17.784468    
  14325000   303.96201     -5960.6616      1128.6382     -2113.8644      1.1880864    
  14350000   300.19871     -5939.9179      1169.2915     -2086.1204     -23.44624     
  14375000   300.97372     -5919.8544      1181.2628     -2047.1552      15.850603    
  14400000   300.57868     -5947.6409      1153.0711     -2106.6659      5.0098653    
  14425000   305.85552     -5943.7275      1200.6543     -2007.9816     -14.176942    
  14450000   301.61361     -5891.6905      1253.7291     -1940.8028     -27.856141    
  14475000   295.6627      -5907.6335      1216.0304     -2047.6601      11.543006    
  14500000   296.50702     -5938.0771      1171.4811     -2115.1026     -35.967659    
  14525000   299.46661     -5928.0162      1155.2037     -2094.8532     -22.381898    
  14550000   295.50358     -5944.9904      1118.0915     -2184.3787      23.020547    
  14575000   299.46197     -5903.8639      1155.5965     -2070.3497      19.275263    
  14600000   296.21394     -5904.6512      1155.2043     -2100.5744     -0.52723652   
  14625000   298.75623     -5933.825       1208.0263     -2054.1919     -0.15954026   
  14650000   294.93714     -5913.339       1195.7054     -2080.1788      19.084201    
  14675000   302.41884     -5917.3828      1161.0005     -2052.023       0.22068268   
  14700000   291.42787     -5932.0965      1126.2835     -2199.7397     -4.9981035    
  14725000   301.9822      -5914.8647      1156.8754     -2057.5346      17.64653     
  14750000   293.50404     -5937.0267      1161.0466     -2151.3407     -14.155226    
  14775000   304.18333     -5932.8439      1194.1335     -2018.5721      23.042632    
  14800000   295.23429     -5949.1386      1126.9156     -2182.111      -16.739392    
  14825000   304.80394     -5937.7644      1157.5948     -2054.4817      17.712044    
  14850000   300.00402     -5921.1747      1206.9812     -2031.4286      29.007238    
  14875000   296.27236     -5947.9971      1173.9463     -2124.6559     -9.6463293    
  14900000   298.15646     -5950.4093      1203.2144     -2080.9516     -16.346046    
  14925000   296.97526     -5930.4715      1176.5651     -2098.2258      42.483893    
  14950000   308.31362     -5948.8663      1147.6113     -2044.182       10.30221     
  14975000   304.21918     -5946.3805      1173.0918     -2052.83        21.042506    
  15000000   306.3187      -5962.3414      1199.3995     -2023.7083      25.997938    
  15025000   300.20338     -5937.5219      1168.0438     -2084.9304     -52.687706    
  15050000   295.77568     -5952.1556      1146.4229     -2160.7793     -6.6785791    
  15075000   294.07261     -5956.3599      1189.9854     -2136.6506      3.8108043    
  15100000   304.80783     -5980.6532      1165.3843     -2089.5462     -0.9715554    
  15125000   300.00408     -5965.2654      1212.1121     -2070.3877      0.64837416   
  15150000   303.96112     -5938.2325      1130.324      -2089.7575      27.926775    
  15175000   302.90458     -5956.6217      1179.5374     -2068.3813     -5.1228923    
  15200000   301.41372     -5976.586       1146.1849     -2135.03       -4.5323481    
  15225000   306.34217     -5945.6631      1165.9893     -2040.2304      28.786676    
  15250000   305.42624     -5935.8153      1137.0005     -2067.562      -2.7865237    
  15275000   306.06956     -5951.3484      1160.4933     -2053.8495     -18.47684     
  15300000   298.45969     -5925.5147      1116.4989     -2140.0608     -0.81310285   
  15325000   296.15629     -5937.5974      1160.9597     -2128.2807      2.9344778    
  15350000   296.4548      -5950.1884      1169.9193     -2129.2428      48.59014     
  15375000   298.79276     -5991.2489      1142.9209     -2176.3946      7.7563505    
  15400000   306.4636      -5983.8544      1135.3679     -2107.9572      36.618652    
  15425000   302.34845     -5938.1593      1176.2332     -2058.1962      3.4124629    
  15450000   307.43973     -5933.6884      1135.935      -2048.495       25.425304    
  15475000   302.29102     -5935.2102      1183.1579     -2048.836       10.586904    
  15500000   301.13606     -5950.5266      1172.202      -2085.4364     -1.6043757    
  15525000   298.22196     -5983.3042      1189.2501     -2127.225       19.782496    
  15550000   301.38407     -5962.5034      1216.6251     -2050.7724     -3.7315431    
  15575000   297.76789     -5949.3569      1211.5032     -2075.0851      2.1875384    
  15600000   302.29679     -5915.9178      1176.3666     -2036.2832      14.413022    
  15625000   297.86636     -5933.9409      1160.0575     -2110.2342      19.334003    
  15650000   296.75896     -5955.3004      1151.5196     -2150.0345      3.715841     
  15675000   292.83293     -5929.5599      1207.5486     -2103.3733      10.760758    
  15700000   304.47799     -5957.312       1152.001      -2082.5379     -18.9249      
  15725000   298.20638     -5951.8772      1145.6767     -2139.5108     -8.4857339    
  15750000   304.51508     -5954.0122      1168.9729     -2061.9346     -13.128511    
  15775000   294.74453     -5924.0567      1135.0983     -2153.2261     -0.91713422   
  15800000   299.38108     -5895.8166      1129.0821     -2089.5402     -8.5929796    
  15825000   296.29826     -5931.6471      1123.7602     -2158.2604     -9.3086331    
  15850000   304.39664     -6000.5737      1171.7987     -2106.7294      4.7779945    
  15875000   303.13174     -5976.8037      1177.0401     -2089.0291     -13.244825    
  15900000   312.55871     -5946.4088      1178.0868     -1973.2876     -17.762331    
  15925000   301.62236     -5953.3199      1196.334      -2059.749       1.201343     
  15950000   303.65541     -5964.644       1170.0479     -2079.1789      18.346488    
  15975000   301.79262     -5953.5348      1168.7807     -2085.9948     -0.16061401   
  16000000   298.80845     -5941.5387      1163.5423     -2105.9228     -6.4411738    
  16025000   305.52116     -5947.826       1215.2075     -2000.5169     -7.5188355    
  16050000   300.35677     -5941.7973      1122.2557     -2133.6222     -4.2845115    
  16075000   298.94775     -5957.2088      1142.553      -2141.3364     -2.4536066    
  16100000   306.8561      -5944.0077      1156.233      -2043.7355      5.2983146    
  16125000   302.3601      -5947.9149      1157.9776     -2086.1032      10.951823    
  16150000   300.22657     -5964.961       1151.1227     -2129.0832      10.146249    
  16175000   292.00716     -5930.7885      1170.8415     -2148.6933      3.7613879    
  16200000   300.73897     -5948.3939      1186.1506     -2072.9061     -6.1838346    
  16225000   307.25446     -5948.8501      1142.9314     -2058.3172     -45.681662    
  16250000   298.03883     -5962.966       1153.081      -2144.6935      25.489973    
  16275000   297.29567     -5980.0733      1180.5475     -2140.98        9.8883776    
  16300000   301.76794     -5954.4145      1154.6828     -2101.193       30.983363    
  16325000   305.40963     -5960.9448      1185.8381     -2044.0025      19.367714    
  16350000   298.77991     -5961.0933      1222.085      -2067.1899      9.0734337    
  16375000   294.91462     -5949.0921      1171.0577     -2140.7811      4.172359     
  16400000   294.65221     -5972.0381      1181.7834     -2155.3478      20.987517    
  16425000   298.22317     -5974.7288      1169.0334     -2138.8555     -1.4403719    
  16450000   302.21444     -5943.9471      1154.9137     -2086.5019     -26.605275    
  16475000   300.05788     -5966.7848      1167.1602     -2116.378       23.44986     
  16500000   303.75621     -5958.5307      1167.7379     -2074.4741      7.1038801    
  16525000   301.06511     -5961.9318      1213.2012     -2056.4768     -8.2122231    
  16550000   306.03118     -5962.3838      1190.9928     -2034.7285     -1.2816837    
  16575000   296.87203     -5985.3482      1157.105      -2173.4858     -12.857906    
  16600000   297.60795     -5958.6148      1227.8198     -2069.4568     -13.823628    
  16625000   294.28894     -5961.9745      1177.4079     -2152.9083      9.2315217    
  16650000   297.14621     -5961.8697      1164.0067     -2140.6538     -17.861075    
  16675000   303.15302     -5959.924       1159.7172     -2089.2821     -2.6284455    
  16700000   303.02849     -5937.7733      1169.5953     -2058.3669     -11.727944    
  16725000   300.71104     -5953.8841      1104.5327     -2160.2639      16.050048    
  16750000   298.10277     -5951.8719      1164.9568     -2121.1519     -4.8828734    
  16775000   297.87622     -5964.2268      1241.3567     -2059.1328     -7.1157729    
  16800000   297.61141     -5946.9021      1182.1063     -2103.4266     -12.01238     
  16825000   302.98883     -5918.7932      1167.3976     -2041.9392      2.4554739    
  16850000   295.96125     -5958.1717      1163.1537     -2148.4052      28.091264    
  16875000   298.01414     -5944.5209      1138.2144     -2141.3359     -0.61803296   
  16900000   312.49473     -5953.5938      1204.5292     -1954.6023      0.69425964   
  16925000   292.55863     -5981.5483      1189.6596     -2175.7036      12.03037     
  16950000   302.87264     -5941.899       1204.4979     -2028.9836     -35.114688    
  16975000   308.50618     -5956.6739      1151.9812     -2045.8977      22.274101    
  17000000   300.26866     -5995.3201      1167.5481     -2142.6406     -9.6538035    
  17025000   296.98586     -5930.4594      1144.0801     -2130.604       5.7282243    
  17050000   301.04899     -5910.0353      1206.5085     -2011.4172      11.729186    
  17075000   303.15001     -5938.4199      1142.0423     -2085.4798      27.62374     
  17100000   302.95252     -5941.4773      1147.1501     -2085.1954     -11.736683    
  17125000   305.06118     -5915.9524      1187.0952     -2000.8689      5.4612763    
  17150000   307.65727     -5949.8128      1173.762      -2024.8471      9.9572305    
  17175000   295.32096     -5937.1677      1188.3735     -2107.9072      1.5306094    
  17200000   295.10282     -5969.7544      1174.2998     -2156.5182      11.436858    
  17225000   296.2302      -5963.8103      1160.7573     -2154.0351     -12.474269    
  17250000   306.1129      -5942.2651      1189.5575     -2015.3144     -1.3424773    
  17275000   302.34136     -5967.6209      1146.8668     -2117.0877      29.082699    
  17300000   293.97242     -5962.7872      1182.4692     -2151.4902     -15.716394    
  17325000   310.42656     -5921.9159      1179.6356     -1966.3125      7.7908709    
  17350000   296.37815     -5958.7433      1160.6816     -2147.7207      32.241092    
  17375000   302.6715      -5935.0904      1200.759      -2027.7127      33.639917    
  17400000   294.7259      -5978.6936      1173.0172     -2170.1105      2.3066698    
  17425000   305.00161     -5930.7244      1212.6996     -1990.5691      21.542196    
  17450000   295.72951     -5996.6878      1150.9666     -2201.1807      9.4016992    
  17475000   298.708       -5967.8525      1183.0188     -2113.6583      14.902813    
  17500000   296.08329     -5972.0462      1213.0509     -2111.2913      0.33763162   
  17525000   306.21898     -5930.5139      1232.8678     -1959.3042      12.660488    
  17550000   292.34719     -5961.6178      1177.0823     -2170.2412     -20.555274    
  17575000   301.44961     -5965.2643      1159.8292     -2109.7431     -3.7341243    
  17600000   296.28197     -5977.8571      1154.5776     -2173.7986      10.591215    
  17625000   306.07868     -5964.0548      1220.0991     -2006.8685     -10.348146    
  17650000   298.87071     -5969.1829      1154.9678     -2141.5847      17.675734    
  17675000   300.4397      -5973.8085      1226.5941     -2060.5534      2.1129218    
  17700000   295.87896     -6008.1258      1168.9807     -2193.2682     -27.650343    
  17725000   305.01022     -5976.8336      1187.8468     -2061.4543     -14.756708    
  17750000   304.55286     -5981.6138      1205.1827     -2052.9884      3.183374     
  17775000   301.83547     -5962.9322      1207.7453     -2056.0443      3.5738907    
  17800000   304.26031     -5945.2567      1168.8775     -2055.5526      15.921109    
  17825000   294.82026     -5967.8741      1152.0424     -2179.4221     -20.116325    
  17850000   304.80447     -5967.1382      1187.3782     -2054.0673     -4.9439835    
  17875000   296.89877     -5931.5579      1155.2732     -2121.2882     -9.4569313    
  17900000   300.34976     -5961.0088      1173.4997     -2101.6524      17.977818    
  17925000   298.95684     -5966.0024      1200.4137     -2092.188      -3.5778061    
  17950000   296.7691      -5972.0185      1153.0485     -2165.1331      4.9877771    
  17975000   294.55781     -5916.6685      1150.8369     -2131.7689     -12.889837    
  18000000   300.91764     -5968.4821      1184.8623     -2092.6848     -7.2561314    
  18025000   297.61869     -5949.1236      1211.6287     -2076.0606     -4.1489516    
  18050000   302.53018     -5919.6367      1194.8871     -2019.3945     -21.302444    
  18075000   293.09313     -5950.0329      1134.702      -2194.3661      57.578588    
  18100000   304.22189     -5942.0567      1176.9113     -2044.6624      20.876547    
  18125000   300.52604     -5976.3283      1144.1308     -2144.7643      35.834244    
  18150000   303.61246     -5969.2821      1183.4498     -2070.799      -11.729772    
  18175000   303.77654     -5934.561       1161.5756     -2056.4849      7.834875     
  18200000   297.66382     -5953.0058      1157.4391     -2133.7288     -14.624473    
  18225000   296.60617     -5957.3401      1201.5132     -2103.4469     -19.003479    
  18250000   300.35545     -5974.5777      1164.3132     -2124.3569      22.9912      
  18275000   293.86899     -5960.5024      1147.0027     -2185.5968     -2.9197191    
  18300000   298.20259     -5978.0271      1125.8533     -2185.5179     -6.9415744    
  18325000   303.55004     -5969.2728      1140.2077     -2114.59        13.330786    
  18350000   297.79854     -5986.9657      1156.7526     -2167.1705      4.3799988    
  18375000   303.87116     -5952.4197      1189.1645     -2045.9086      14.986577    
  18400000   292.86472     -5972.8116      1151.7046     -2202.1847     -4.8764134    
  18425000   301.9157      -5978.705       1184.3217     -2094.5232     -46.836623    
  18450000   289.97795     -5999.7918      1188.9463     -2217.7379     -6.5843164    
  18475000   296.69339     -5952.1563      1133.2112     -2165.7852      8.6417841    
  18500000   304.51051     -5977.9505      1143.7151     -2111.1715      21.054576    
  18525000   297.91357     -5980.3623      1147.4919     -2168.7991      3.6155329    
  18550000   298.73697     -5984.5862      1181.1102     -2132.0416      8.1967322    
  18575000   304.50573     -5981.6154      1152.7667     -2105.8274      29.897624    
  18600000   301.92632     -5982.4617      1170.2871     -2112.2195      4.7164382    
  18625000   300.7001      -5952.3536      1196.9631     -2066.4009      9.5170901    
  18650000   296.10452     -5955.7238      1172.2843     -2135.5455     -19.417751    
  18675000   300.49324     -6016.2612      1194.5216     -2134.5997     -16.816739    
  18700000   302.81198     -5988.246       1185.4253     -2094.9457     -14.86693     
  18725000   300.71642     -5988.6187      1121.8872     -2177.5959      36.327091    
  18750000   302.02036     -5966.1554      1158.9093     -2106.4501      4.3763752    
  18775000   296.83323     -5979.8108      1195.6686     -2129.7318      2.9193239    
  18800000   301.40473     -5969.5401      1206.0224     -2068.2269      5.4543594    
  18825000   304.16188     -5987.926       1205.1789     -2062.8007     -0.43234175   
  18850000   297.11388     -5971.7916      1149.1226     -2165.7488     -18.983757    
  18875000   300.38468     -5993.4733      1155.3232     -2151.981       11.733331    
  18900000   301.43532     -5966.5772      1177.2091     -2093.8037      15.381087    
  18925000   301.88803     -5964.389       1227.5401     -2037.2363      21.112502    
  18950000   300.57202     -6001.9653      1171.4848     -2142.6362     -14.744888    
  18975000   297.80018     -6005.7851      1182.3765     -2160.3513      7.7175105    
  19000000   300.11066     -5980.0369      1145.0221     -2151.2962      12.023633    
  19025000   301.68484     -5975.0522      1159.6375     -2117.619       5.8907468    
  19050000   301.81911     -5970.7138      1155.8716     -2115.8459     -8.2819497    
  19075000   297.53166     -5989.9149      1184.8402     -2144.4186      18.034778    
  19100000   297.31587     -5973.3527      1146.5036     -2168.1227      32.643916    
  19125000   298.3018      -5972.1888      1166.4282     -2138.2176     -6.4596099    
  19150000   302.59496     -5954.379       1159.3639     -2089.0807     -8.573723     
  19175000   300.22414     -5992.0324      1196.7391     -2110.5599      4.3227728    
  19200000   295.74599     -5979.7081      1143.5793     -2191.441      -8.3731646    
  19225000   298.69816     -5980.6722      1128.5855     -2180.9993      20.900464    
  19250000   296.38616     -5982.8672      1186.7229     -2145.7317     -12.04288     
  19275000   305.89852     -5993.7441      1101.1982     -2157.0697     -9.3371325    
  19300000   299.05577     -5977.2691      1143.4309     -2159.5528     -36.686075    
  19325000   300.89783     -6000.86        1154.8467     -2155.2554      31.887805    
  19350000   288.32847     -5972.2778      1137          -2256.9206     -15.256002    
  19375000   300.94255     -6003.2197      1171.2281     -2140.8338     -1.0440172    
  19400000   299.74396     -6021.4898      1154.9106     -2186.1399      6.2653989    
  19425000   295.13375     -6032.0251      1183.9152     -2208.897       16.302324    
  19450000   303.25067     -5988.6538      1185.0147     -2091.8412     -16.787215    
  19475000   299.68715     -6013.2603      1152.1694     -2181.1595     -25.233874    
  19500000   305.45587     -6019.7946      1139.3726     -2148.9042      11.934938    
  19525000   297.80436     -5974.9335      1200.4169     -2111.4218      21.261909    
  19550000   305.02871     -5992.5373      1150.9693     -2113.87       -9.9983119    
  19575000   301.86454     -5972.2069      1172.5302     -2100.2741     -6.7893898    
  19600000   299.05804     -5985.7632      1153.1831     -2158.2745     -16.803316    
  19625000   296.51356     -5978.0317      1152.916      -2173.5638      20.194376    
  19650000   302.79769     -6006.2384      1183.5488     -2114.9423     -29.97252     
  19675000   308.24995     -5999.1078      1145.9185     -2096.6857     -4.2348664    
  19700000   290.54859     -6000.1324      1165.1379     -2236.784       11.961995    
  19725000   292.71651     -5978.5145      1156.0833     -2204.8343      36.240231    
  19750000   297.71205     -5974.4642      1133.7178     -2178.4772      23.401652    
  19775000   294.64646     -5999.2906      1126.1109     -2238.3243     -17.041415    
  19800000   293.85196     -6025.1334      1153.3046     -2244.0782      16.465669    
  19825000   301.09872     -5999.8951      1171.4336     -2135.9072      39.398183    
  19850000   294.8012      -6016.0141      1169.8919     -2209.8831     -29.719915    
  19875000   302.13104     -6021.6951      1167.8812     -2152.0282      10.205656    
  19900000   296.73103     -6028.9144      1161.6596     -2213.7583      9.8358057    
  19925000   296.03684     -6037.6439      1163.732      -2226.6231      29.210593    
  19950000   293.8389      -5994.8696      1140.7276     -2226.5082     -47.994647    
  19975000   303.94692     -6005.1478      1140.6279     -2146.4958     -65.878821    
  20000000   310.62504     -5967.273       1140.3473     -2049.183       19.135976    
  20025000   304.97922     -5978.1894      1209.3592     -2041.5748      7.5931943    
  20050000   297.63321     -6016.1341      1179.5047     -2175.0652      16.233121    
  20075000   300.50586     -6015.3486      1169.0353     -2159.0606     -5.4956982    
  20100000   297.76583     -5970.0413      1182.8545     -2124.4367     -0.22014983   
  20125000   299.42473     -6010.1143      1141.2661     -2191.2635     -18.899368    
  20150000   302.29276     -5997.2384      1142.9736     -2151.0328      8.4864483    
  20175000   298.85105     -5967.849       1163.1239     -2132.2706      11.795226    
  20200000   300.57269     -6005.9886      1196.5439     -2121.5944     -5.433742     
  20225000   308.07631     -6023.6271      1185.8757     -2082.8006     -17.359331    
  20250000   295.93233     -6013.5289      1188.7774     -2178.3973     -10.2989      
  20275000   299.02525     -6028.5417      1180.4428     -2174.0864     -9.2968531    
  20300000   302.62925     -6015.4843      1111.0138     -2198.2295      20.563299    
  20325000   308.72737     -5994.2114      1204.262      -2029.1764      36.533002    
  20350000   300.403       -6027.6659      1158.8326     -2182.5004     -12.584918    
  20375000   303.0318      -5991.7295      1213.3996     -2068.4892      34.288089    
  20400000   301.14025     -6000.6912      1151.4617     -2156.3039     -25.74895     
  20425000   304.15425     -5993.6508      1168.9408     -2104.8319      16.110099    
  20450000   296.41952     -5980.1896      1157.1193     -2172.3595     -5.0848352    
  20475000   299.28952     -5999.4657      1207.461      -2115.6291     -50.704727    
  20500000   304.56858     -6013.2416      1176.8405     -2112.8178     -11.220904    
  20525000   302.27859     -5987.4078      1170.2631     -2114.0395      0.59365005   
  20550000   307.82345     -5952.3479      1168.3085     -2031.3497      2.1362349    
  20575000   300.58757     -5989.0648      1149.8971     -2151.1843     -8.5873536    
  20600000   305.32477     -5999.1352      1151.1913     -2117.5984     -5.8265744    
  20625000   298.47714     -5949.6327      1128.1559     -2152.3658     -8.6672599    
  20650000   306.52705     -5937.8175      1128.5574     -2068.1634      0.63368601   
  20675000   298.28011     -5930.275       1165.8981     -2097.0278     -2.8423301    
  20700000   303.1892      -5953.0927      1204.0342     -2037.8103     -26.665175    
  20725000   305.21543     -5994.8817      1157.0169     -2108.4972     -6.0426407    
  20750000   293.56456     -6002.912       1115.4971     -2262.2344      25.974294    
  20775000   298.69059     -6013.2512      1177.6628     -2164.5687     -8.8390432    
  20800000   295.18982     -5992.917       1172.6526     -2180.5501      12.47368     
  20825000   295.33593     -6012.5074      1138.0191     -2233.4674      38.532525    
  20850000   301.04317     -5979.501       1188.0066     -2099.4368      8.3530088    
  20875000   296.66423     -6005.4511      1186.0931     -2166.4589     -10.920489    
  20900000   292.69644     -5997.7311      1157.56       -2222.7536     -37.199695    
  20925000   297.31685     -5990.1936      1224.9672     -2106.4912      23.775551    
  20950000   296.178       -5986.4859      1144.8358     -2193.099       34.413825    
  20975000   307.69847     -5996.7063      1129.7966     -2115.3376     -7.8312163    
  21000000   298.0549      -5950.9637      1160.0037     -2125.6249     -7.9504677    
  21025000   295.92693     -5969.4582      1205.7877     -2117.3647     -3.2464406    
  21050000   304.33325     -6036.5369      1179.1721     -2135.8859     -1.1407921    
  21075000   295.14198     -5969.1587      1229.3326     -2100.5396      47.79774     
  21100000   304.20743     -5978.5515      1176.5729     -2081.6249      27.676499    
  21125000   299.02544     -6000.1681      1180.0436     -2146.1104      34.436697    
  21150000   300.56601     -5955.0278      1127.1566     -2140.0806      16.531177    
  21175000   300.16089     -6021.7472      1181.3868     -2156.1926      12.374162    
  21200000   308.13558     -5996.9206      1156.2639     -2085.1759     -17.917227    
  21225000   297.66536     -6009.3025      1197.7653     -2149.6856     -11.738488    
  21250000   301.10738     -6002.2235      1147.7046     -2161.8872     -28.993623    
  21275000   301.11322     -6023.8241      1197.3519     -2133.7884      8.3656296    
  21300000   306.8869      -6019.7635      1164.2247     -2111.2241      5.4307626    
  21325000   301.51666     -6018.1359      1193.6241     -2128.2202      3.5765333    
  21350000   302.96003     -6002.472       1205.2113     -2088.0617      32.234474    
  21375000   297.68128     -6026.4336      1169.1895     -2195.2501      26.220809    
  21400000   294.65207     -5997.6404      1150.5641     -2212.1708     -5.6331229    
  21425000   300.86214     -6042.513       1105.3152     -2246.7591      15.486317    
  21450000   300.70138     -6039.4587      1126.6176     -2223.84       -7.9273882    
  21475000   299.59765     -6050.2064      1221.3713     -2149.7041      4.4102642    
  21500000   300.34078     -6006.9858      1170.9282     -2150.2811      2.4951685    
  21525000   300.31953     -5999.5222      1169.3131     -2144.6226     -25.2935      
  21550000   308.30006     -6010.0644      1227.0182     -2026.0945      8.5494486    
  21575000   307.73718     -6020.4087      1151.5585     -2116.9319      1.1208629    
  21600000   304.1268      -5947.3992      1146.8913     -2080.8752     -25.293557    
  21625000   294.80529     -5991.7004      1188.0096     -2167.415      -2.4204302    
  21650000   296.81512     -6010.2476      1194.4568     -2161.5424     -1.0991654    
  21675000   311.42863     -6002.7508      1202.7216     -2015.1004     -16.560531    
  21700000   292.18687     -5948.6918      1155.5708     -2180.2603      40.082053    
  21725000   295.98455     -5989.7052      1171.1067     -2171.7774      12.229012    
  21750000   300.93099     -5960.3157      1151.6567     -2117.6046     -12.551358    
  21775000   304.76998     -5995.7352      1165.656      -2104.6949      23.427168    
  21800000   294.81529     -5957.2709      1209.5629     -2111.3428     -20.955346    
  21825000   296.03876     -5995.196       1175.9517     -2171.9384     -6.8860449    
  21850000   293.85773     -5984.2285      1187.7806     -2168.6457      5.4373339    
  21875000   306.72238     -6010.904       1116.5552     -2151.5054      0.49830978   
  21900000   293.98628     -5995.0526      1172.7712     -2193.3297     -12.302597    
  21925000   300.29432     -5960.6984      1168.8201     -2106.5173     -13.695499    
  21950000   300.86384     -5980.9653      1172.083      -2118.4285     -19.570035    
  21975000   294.40527     -5947.0198      1162.3647     -2151.9566     -23.01747     
  22000000   292.13452     -5974.5519      1212.4113     -2149.7481     -2.2589162    
  22025000   297.40851     -5963.0819      1215.8803     -2087.6467     -25.397932    
  22050000   304.69003     -5952.2996      1227.4423     -2000.188       14.714356    
  22075000   296.63671     -5931.8865      1163.5288     -2115.7046      18.239296    
  22100000   305.29794     -5990.194       1186.3871     -2073.7014     -1.352516     
  22125000   297.69856     -5924.6434      1176.3748     -2086.12        19.857966    
  22150000   297.85335     -5969.8677      1198.8712     -2107.4638      4.8691062    
  22175000   295.91345     -5978.1488      1151.0846     -2180.8788      10.720837    
  22200000   304.8181      -5970.3748      1172.5127     -2072.0475     -9.8349777    
  22225000   303.8242      -5988.3929      1167.0402     -2104.426       8.4452475    
  22250000   295.45147     -5967.6371      1194.0703     -2131.5126     -2.2155771    
  22275000   304.91381     -5988.3954      1215.4193     -2046.3056     -12.497711    
  22300000   304.83374     -5960.3283      1162.7222     -2071.6515      22.669989    
  22325000   296.56707     -6018.4199      1147.4893     -2218.9003      19.642212    
  22350000   304.20482     -5959.3142      1166.6669     -2072.3169      6.3891901    
  22375000   297.02082     -6013.4483      1241.8791     -2115.4813      19.907856    
  22400000   305.50058     -5983.3458      1152.2873     -2099.1408     -25.206256    
  22425000   293.2765      -5975.1059      1159.2664     -2193.2349      4.9364171    
  22450000   298.72986     -6003.6177      1142.8226     -2189.4242     -17.050966    
  22475000   304.92612     -5986.5488      1163.0279     -2096.7404     -14.522141    
  22500000   298.02567     -5989.0071      1154.5158     -2169.4176      16.390068    
  22525000   299.74092     -5998.3705      1176.7796     -2141.1786     -10.55141     
  22550000   296.43179     -6013.3474      1145.3787     -2217.1481     -37.611488    
  22575000   289.2472      -5974.8604      1174.8671     -2213.4204      4.7586747    
  22600000   300.02034     -6019.9586      1176.6501     -2160.3975      16.752092    
  22625000   304.64248     -5997.4489      1160.8758     -2112.329       2.421824     
  22650000   302.5166      -6015.4199      1199.1384     -2111.048       0.63129674   
  22675000   294.16958     -5988.8369      1213.0778     -2145.1681      9.1853255    
  22700000   302.09483     -5982.9447      1144.94       -2136.5427      33.988858    
  22725000   293.93718     -5955.7112      1211.3808     -2115.8177     -28.411037    
  22750000   301.82149     -5946.6445      1161.2631     -2086.3638      42.830735    
  22775000   300.74017     -6005.152       1205.6067     -2110.1973     -14.417964    
  22800000   304.81705     -6013.165       1240.8678     -2046.492      -32.937525    
  22825000   297.14608     -6006.3538      1205.8589     -2143.2869     -3.0734746    
  22850000   298.52326     -6000.0622      1190.8266     -2139.7123      4.482593     
  22875000   300.42097     -6010.5587      1152.919      -2171.1462      27.364799    
  22900000   305.85826     -6008.3547      1150.6135     -2122.6251      8.4039335    
  22925000   295.25134     -6040.8059      1187.0783     -2213.4631     -12.011816    
  22950000   297.46732     -5991.9292      1183.9262     -2147.9223      17.663534    
  22975000   303.28812     -6007.0122      1176.1732     -2118.7062     -2.6532575    
  23000000   297.60291     -5993.3107      1158.0949     -2173.9226      14.002131    
  23025000   299.24105     -5972.4516      1124.1929     -2172.3165     -14.665548    
  23050000   301.29953     -6001.983       1104.9227     -2202.7103      2.8895454    
  23075000   295.68803     -6004.4293      1127.4888     -2232.771       24.399958    
  23100000   298.48757     -5999.7234      1167.1819     -2163.3372     -2.7306462    
  23125000   309.15286     -6020.7739      1182.2573     -2073.9388      29.902447    
  23150000   298.80397     -6045.45        1145.8113     -2227.6051      20.213746    
  23175000   295.95625     -6036.8562      1185.505      -2204.7832     -4.452958     
  23200000   307.14171     -6023.8626      1189.3234     -2087.9458     -19.826179    
  23225000   304.3356      -6002.7838      1172.8832     -2108.4007     -33.548608    
  23250000   307.2631      -6049.4426      1165.4173     -2136.3465      13.732347    
  23275000   303.92707     -6057.1748      1223.5262     -2115.8019     -0.60656002   
  23300000   298.15156     -5997.3185      1173.0322     -2158.0868     -29.976496    
  23325000   298.73801     -6022.3763      1189.3184     -2161.6141     -17.278377    
  23350000   304.59241     -6001.2449      1169.4232     -2108.0254      13.827941    
  23375000   293.71191     -5986.7342      1193.0983     -2167.1376      29.040043    
  23400000   304.86546     -6024.0437      1177.5012     -2120.3044      27.185475    
  23425000   302.92262     -5993.8731      1175.1802     -2109.8285     -28.190068    
  23450000   297.87359     -6011.4686      1171.7245     -2176.0304     -31.853933    
  23475000   293.45903     -5996.7554      1258.2288     -2114.2897     -13.432053    
  23500000   292.32809     -6027.3248      1158.5219     -2254.6793      18.392221    
  23525000   296.22683     -5993.5896      1157.2952     -2187.3067      54.099142    
  23550000   297.5992      -6012.1609      1154.2352     -2196.6656      27.401809    
  23575000   299.61549     -6003.636       1171.7258     -2152.6195      44.595269    
  23600000   293.00358     -6049.0903      1155.0627     -2273.8635      3.6423036    
  23625000   297.64368     -6032.8425      1210.582      -2160.6026     -8.7782604    
  23650000   299.36435     -6011.2421      1171.0519     -2163.1454     -18.378089    
  23675000   294.32758     -6024.393       1139.8028     -2252.5864      7.3746091    
  23700000   297.53408     -6006.3159      1175.5427     -2170.0954     -22.125275    
  23725000   301.50726     -6050.2818      1215.2295     -2138.8446     -2.2696757    
  23750000   306.3265      -6026.8607      1159.0946     -2128.4628      14.35176     
  23775000   299.78005     -6037.76        1180.4668     -2176.5311      24.569104    
  23800000   297.54992     -6058.2772      1184.748      -2212.7099     -14.428921    
  23825000   309.80837     -6044.8021      1140.6689     -2133.6935      13.368217    
  23850000   297.67056     -6021.2931      1161.1552     -2198.2398     -11.220976    
  23875000   305.25584     -6058.902       1194.2191     -2134.9538     -9.8407839    
  23900000   302.66683     -6030.4812      1195.8285     -2128.0758      7.9643104    
  23925000   301.96898     -6053.4687      1236.9904     -2116.1418      15.981914    
  23950000   291.89665     -6047.325       1159.8108     -2277.2489      15.710424    
  23975000   293.82011     -6033.6407      1149.0406     -2257.1343     -52.227315    
  24000000   302.96647     -6070.6128      1203.2333     -2158.123      -13.351841    
  24025000   298.91469     -6020.522       1189.5354     -2157.9629      23.786672    
  24050000   306.43797     -6026.5383      1181.5724     -2104.6658     -10.693651    
  24075000   300.13548     -6014.7628      1185.5305     -2145.2917      8.797571     
  24100000   303.20324     -6002.2146      1185.0679     -2105.773       26.016763    
  24125000   292.85505     -6025.4407      1156.0238     -2250.5811      34.388716    
  24150000   299.98179     -6007.4562      1220.5106     -2104.3794     -0.21396837   
  24175000   291.37436     -6013.0418      1191.7995     -2215.6474     -4.3649865    
  24200000   302.83533     -6018.2385      1129.2527     -2180.9021     -17.751384    
  24225000   302.38298     -6044.8107      1234.7432     -2106.0288     -11.443875    
  24250000   299.47583     -6020.3607      1186.8087     -2155.5103      21.743963    
  24275000   302.2794      -5983.6542      1190.1843     -2090.3575      19.204961    
  24300000   296.77856     -5999.9846      1214.1645     -2131.8985     -26.548814    
  24325000   296.22888     -6023.0694      1134.2372     -2239.8261      6.7894549    
  24350000   292.80726     -6012.8369      1210.4006     -2184.0278      19.050504    
  24375000   308.73332     -5997.9979      1155.532      -2081.6398      13.023701    
  24400000   295.77731     -6020.8965      1188.4607     -2187.4679     -4.4659398    
  24425000   300.63191     -5984.8182      1165.305      -2131.1334      9.4631346    
  24450000   299.13704     -6001.0584      1166.2415     -2159.8049      45.498305    
  24475000   304.37767     -5961.771       1213.003      -2026.892       0.94752481   
  24500000   302.68886     -6034.4265      1174.8921     -2152.7604     -27.77497     
  24525000   298.73985     -5966.1349      1186.7772     -2107.8974      11.300741    
  24550000   301.65792     -6002.0636      1189.7649     -2114.7438      3.7595874    
  24575000   296.71711     -5994.3416      1210.3371     -2130.6325      4.3394315    
  24600000   298.70495     -6009.9193      1151.7438     -2187.0274     -36.971488    
  24625000   308.64871     -5963.9755      1130.4079     -2073.4981     -8.3323275    
  24650000   302.30847     -6018.5166      1168.3641     -2146.7801     -26.945429    
  24675000   305.97738     -5953.0245      1198.7766     -2018.0665     -5.3213499    
  24700000   302.18449     -6014.4545      1183.2361     -2128.9548     -1.2601652    
  24725000   297.94612     -6032.6031      1182.302      -2185.9387     -17.020779    
  24750000   301.95285     -6011.3991      1138.2741     -2172.9328      24.476311    
  24775000   295.58275     -6036.7193      1173.3841     -2220.1071      20.629573    
  24800000   299.29349     -6047.2764      1181.5894     -2189.2759     -13.38297     
  24825000   296.85429     -6006.1472      1171.1055     -2180.443       15.00237     
  24850000   303.25373     -6026.707       1114.6267     -2200.2551      43.35882     
  24875000   300.44144     -6010.3496      1129.6076     -2194.0653     -1.4438042    
  24900000   295.82472     -6023.0347      1148.4755     -2229.1673     -17.061397    
  24925000   301.90279     -5995.3264      1218.197      -2077.3847      18.786965    
  24950000   310.70629     -6020.2348      1138.2044     -2103.5612      42.791449    
  24975000   305.0063      -6030.0732      1149.3765     -2153.1992      7.1949874    
  25000000   301.83813     -6039.6398      1184.0817     -2156.3918      25.509163    
  25010000   297.83015     -5996.5065      1175.0721     -2158.1091      23.006276    
Loop time of 30169.2 on 18 procs for 25000000 steps with 3001 atoms

Performance: 2147.888 ns/day, 0.011 hours/ns, 828.661 timesteps/s
99.7% CPU use with 18 MPI tasks x 1 OpenMP threads

MPI task timing breakdown:
Section |  min time  |  avg time  |  max time  |%varavg| %total
---------------------------------------------------------------
Pair    | 192.94     | 2330       | 10676      |6366.3 |  7.72
Bond    | 104.33     | 246.5      | 714.28     |1140.8 |  0.82
Neigh   | 12308      | 12349      | 12422      |  38.0 | 40.93
Comm    | 5466.1     | 14698      | 17112      |2823.4 | 48.72
Output  | 10.295     | 10.34      | 10.369     |   0.6 |  0.03
Modify  | 124.28     | 274.35     | 776.2      |1170.3 |  0.91
Other   |            | 260.8      |            |       |  0.86

Nlocal:        166.722 ave         514 max          41 min
Histogram: 7 1 4 4 0 0 0 0 0 2
Nghost:        4930.67 ave        5664 max        3710 min
Histogram: 2 0 0 0 5 3 0 0 3 5
Neighs:        3332.72 ave       15161 max         163 min
Histogram: 8 3 5 0 0 0 0 0 0 2
FullNghs:         6721 ave       30885 max         314 min
Histogram: 8 0 8 0 0 0 0 0 0 2

Total # of neighbors = 121085
Ave neighs/atom = 40.348217
Ave special neighs/atom = 3.5988004
Neighbor list builds = 2500000
Dangerous builds = 2500000
Total wall time: 8:22:53
