LAMMPS (23 Jun 2022)
OMP_NUM_THREADS environment is not set. Defaulting to 1 thread. (src/src/comm.cpp:98)
  using 1 OpenMP thread(s) per MPI task

variable 		movie equal 25000
variable		output equal 5000
variable		solvent equal 0.2  #0.2 is a good solvent, 0.5 is a bad solvent, 1.0 is no solvent/vacuum
variable		np_rad equal 25.0  #NP radius in Angstrom (= 0.1 nm)
variable		coor_del equal 3.0  # in order for a ligand to be considered to be bound, it must be within this radius of the edge of the NP VDW
variable 		s2_cutoff equal 35
variable 		E_bind equal 6.0  #ligand-NP binding energy in kcal/mol
variable		Lbox equal 150.0   #edge length of cubic simulation box
variable 		Nlig equal 600	   #number of ligands
variable		seed equal 314159
variable		trajsteps equal 25000000	 #number of timesteps (length of simulation)
restart			2500000 save

units 			real
atom_style		molecular

region 			box block 0 ${Lbox} 0 ${Lbox} 0 ${Lbox} units box
region 			box block 0 150 0 ${Lbox} 0 ${Lbox} units box
region 			box block 0 150 0 150 0 ${Lbox} units box
region 			box block 0 150 0 150 0 150 units box
create_box		4 box bond/types 2 angle/types 1 extra/bond/per/atom 2 extra/angle/per/atom 1 extra/special/per/atom 3
Created orthogonal box = (0 0 0) to (150 150 150)
  4 by 4 by 4 MPI processor grid

molecule		lig ligand.mol
Read molecule template lig:
  1 molecules
  0 fragments
  5 atoms with max type 2
  4 bonds with max type 1
  3 angles with max type 1
  0 dihedrals with max type 0
  0 impropers with max type 0
#molecule		hex hexane.mol

mass            1 60 #C1, MARTINI bead representing a 4-carbon segment of an alkyl chain
mass            2 60 #N6d, MARTINI bead representing a NH2 amino group + a 2-carbon segment of an alkyl chain
mass            3 43 #SC2, MARTINI bead representing a 3-carbon segment of an alkyl chain. NOT USED IN THIS SIMULATION!
mass            4 500 #a spherical nanoparticle. the mass is not realistic.

# put NP in center
create_atoms	4 single $(v_Lbox/2) $(v_Lbox/2) $(v_Lbox/2) units box
create_atoms	4 single 75 $(v_Lbox/2) $(v_Lbox/2) units box
create_atoms	4 single 75 75 $(v_Lbox/2) units box
create_atoms	4 single 75 75 75 units box
Created 1 atoms
  using box units in orthogonal box = (0 0 0) to (150 150 150)
  create_atoms CPU = 0.000 seconds

# define region as everything outside a spherical center in sim. box. ASSUME SIM. BOX IS IMPLIED? doc seems to...
region			box_with_hole sphere $(v_Lbox/2) $(v_Lbox/2) $(v_Lbox/2) $(v_np_rad+5.0) side out units box
region			box_with_hole sphere 75 $(v_Lbox/2) $(v_Lbox/2) $(v_np_rad+5.0) side out units box
region			box_with_hole sphere 75 75 $(v_Lbox/2) $(v_np_rad+5.0) side out units box
region			box_with_hole sphere 75 75 75 $(v_np_rad+5.0) side out units box
region			box_with_hole sphere 75 75 75 30 side out units box

create_atoms	0 random ${Nlig} ${seed} box_with_hole mol lig 12345
create_atoms	0 random 600 ${seed} box_with_hole mol lig 12345
create_atoms	0 random 600 314159 box_with_hole mol lig 12345
Created 3000 atoms
  using lattice units in orthogonal box = (0 0 0) to (150 150 150)
  create_atoms CPU = 0.004 seconds

pair_style		lj/expand 12.0
pair_modify		shift yes

#pair_coeff		1 1 energy sigma delta cut

#ligand-ligand interactions
pair_coeff		1 1 $(v_solvent*0.810) 4.7 0 12
pair_coeff		1 1 0.16200000000000003286 4.7 0 12
pair_coeff		2 2 $(v_solvent*0.841) 4.7 0 12
pair_coeff		2 2 0.16820000000000001616 4.7 0 12
pair_coeff		1 2 $(v_solvent*0.667) 4.7 0 12
pair_coeff		1 2 0.13340000000000001856 4.7 0 12

#solvent-ligand interactions, NOT USED IN THIS SIMULATION
pair_coeff		3 3 0.562 4.1 0 12
pair_coeff		1 3 0.755 4.3 0 12
pair_coeff		2 3 0.554 4.3 0 12

#interactions involving the NP
pair_coeff  	1 4 0.100 4.0 $(v_np_rad-2.5) 12
pair_coeff  	1 4 0.100 4.0 22.5 12
pair_coeff  	3 4 0.100 4.0 $(v_np_rad-2.5) 12
pair_coeff  	3 4 0.100 4.0 22.5 12
pair_coeff		4 4 0.100 4.0 $(2*v_np_rad-4.0) 12
pair_coeff		4 4 0.100 4.0 46 12
pair_coeff   	2 4 ${E_bind} 4.0 $(v_np_rad-2.5) 12 #this interaction controls the binding strength of ligands to the NP core
pair_coeff   	2 4 6 4.0 $(v_np_rad-2.5) 12 
pair_coeff   	2 4 6 4.0 22.5 12 

bond_style  	harmonic
bond_coeff  	1 4.54 4.7 	#C1-C1
bond_coeff		2 5.98 4.05 #SC2-SC2, hexane

angle_style		cosine/squared
angle_coeff		1 4.1826 180

special_bonds 	lj 0 1 1
Finding 1-2 1-3 1-4 neighbors ...
  special bond factors lj:    0        1        1       
  special bond factors coul:  0        0        0       
     2 = max # of 1-2 neighbors
     2 = max # of 1-3 neighbors
     2 = max # of 1-4 neighbors
     7 = max # of special neighbors
  special bonds CPU = 0.002 seconds

group			ligands type 1 2
3000 atoms in group ligands


#EQULILIBRATION: getting rid of overlaps between particles using fix nve/limit ***************

fix 			1 ligands nve/limit 0.1
fix 			2 ligands langevin 300 300 1000 12345 #langevin thermostat

timestep		30

thermo 			${output}
thermo 			5000

dump      		1 all custom 5000 pos.lammpstrj type x y z
dump_modify		1 sort id

run				10000
Generated 0 of 6 mixed pair_coeff terms from geometric mixing rule
Neighbor list info ...
  update every 1 steps, delay 10 steps, check yes
  max neighbors/atom: 2000, page size: 100000
  master list distance cutoff = 60
  ghost atom cutoff = 60
  binsize = 30, bins = 5 5 5
  1 neighbor lists, perpetual/occasional/extra = 1 0 0
  (1) pair lj/expand, perpetual
      attributes: half, newton on
      pair build: half/bin/newton
      stencil: half/bin/3d
      bin: standard
Per MPI rank memory allocation (min/avg/max) = 8.076 | 8.105 | 8.367 Mbytes
   Step          Temp          E_pair         E_mol          TotEng         Press     
         0   0              9.8623636e+13  4.0068356e-25  9.8623636e+13  8.0147754e+12
      5000   142.1523      -460.0555       620.45783      1431.5894      1.6418897    
     10000   141.01536     -542.11003      632.12424      1351.0342      0.77556564   
Loop time of 3.93908 on 64 procs for 10000 steps with 3001 atoms

Performance: 6580.213 ns/day, 0.004 hours/ns, 2538.662 timesteps/s
99.6% CPU use with 64 MPI tasks x 1 OpenMP threads

MPI task timing breakdown:
Section |  min time  |  avg time  |  max time  |%varavg| %total
---------------------------------------------------------------
Pair    | 0.017174   | 0.051557   | 0.12433    |  10.9 |  1.31
Bond    | 0.011156   | 0.021132   | 0.035556   |   3.9 |  0.54
Neigh   | 0.56297    | 0.57181    | 0.58563    |   0.7 | 14.52
Comm    | 3.101      | 3.211      | 3.2765     |   2.2 | 81.52
Output  | 0.0012071  | 0.0012214  | 0.0012351  |   0.0 |  0.03
Modify  | 0.021711   | 0.040305   | 0.067146   |   5.4 |  1.02
Other   |            | 0.04207    |            |       |  1.07

Nlocal:        46.8906 ave          82 max          21 min
Histogram: 6 8 11 11 3 8 4 5 5 3
Nghost:        3453.62 ave        3534 max        3359 min
Histogram: 1 0 5 9 16 8 9 11 1 4
Neighs:        327.828 ave         808 max          53 min
Histogram: 8 12 14 8 4 5 5 3 2 3

Total # of neighbors = 20981
Ave neighs/atom = 6.9913362
Ave special neighs/atom = 3.5988004
Neighbor list builds = 909
Dangerous builds = 0

#PRODUCTION RUN ******************************************************************************

unfix 			1
fix 			1 ligands nve
undump			1
# define spherical region in center of sim. box
# region			center sphere $(v_Lbox/2) $(v_Lbox/2) $(v_Lbox/2) $(v_np_rad+5.0) units box
# delete atoms in the region
# delete_atoms	region center mol yes
# put NP in the hole
# create_atoms	4 single $(v_Lbox/2) $(v_Lbox/2) $(v_Lbox/2) units box

dump      		2 all custom ${movie} pos2.lammpstrj type x y z
dump      		2 all custom 25000 pos2.lammpstrj type x y z
dump_modify		2 sort id
dump 			2. all custom ${output} pos2_long.lammpstrj type x y z
dump 			2. all custom 5000 pos2_long.lammpstrj type x y z
dump_modify 	2. sort id

group           nps     type 4
1 atoms in group nps
group           amines  type 2
600 atoms in group amines

# count coordination number of NP
compute coords nps coord/atom cutoff $(v_np_rad + v_coor_del) 2
compute coords nps coord/atom cutoff 28 2
dump 3 nps custom ${output} coords.dmp c_coords
dump 3 nps custom 5000 coords.dmp c_coords
# equivalent calculation below
# compute coords nps coord/atom cutoff 28 group amines
# dump 4 nps custom ${output} coords2.dmp type c_coords2

# seond shell
compute coords2 nps coord/atom cutoff ${s2_cutoff} 2
compute coords2 nps coord/atom cutoff 35 2
dump 4 nps custom ${output} coords2.dmp c_coords2
dump 4 nps custom 5000 coords2.dmp c_coords2



run				${trajsteps}
run				25000000
Generated 0 of 6 mixed pair_coeff terms from geometric mixing rule
Neighbor list info ...
  update every 1 steps, delay 10 steps, check yes
  max neighbors/atom: 2000, page size: 100000
  master list distance cutoff = 60
  ghost atom cutoff = 60
  binsize = 30, bins = 5 5 5
  3 neighbor lists, perpetual/occasional/extra = 1 2 0
  (1) pair lj/expand, perpetual
      attributes: half, newton on
      pair build: half/bin/newton
      stencil: half/bin/3d
      bin: standard
  (2) compute coord/atom, occasional
      attributes: full, newton on
      pair build: full/bin
      stencil: full/bin/3d
      bin: standard
  (3) compute coord/atom, occasional
      attributes: full, newton on
      pair build: full/bin
      stencil: full/bin/3d
      bin: standard
Per MPI rank memory allocation (min/avg/max) = 10.11 | 10.24 | 12.12 Mbytes
   Step          Temp          E_pair         E_mol          TotEng         Press     
     10000   141.01536     -542.11003      632.12424      1351.0342      0.77556564   
     15000   290.78643     -553.23075      1280.2109      3327.3175      4.6033256    
     20000   300.46809     -629.31624      1274.8618      3332.4605      4.1795761    
     25000   291.23082     -714.83346      1258.9809      3148.4587     -6.3271581    
     30000   299.594       -795.524        1250.246       3133.8204     -7.8040724    
     35000   296.90144     -894.19927      1257.5929      3018.414      -2.7861417    
     40000   308.72744     -996.4511       1242.1388      3006.4613      2.2083794    
     45000   304.9178      -1046.5686      1286.8758      2967.0134     -7.9560066    
     50000   307.07083     -1089.9446      1276.28        2932.2948      0.31917058   
     55000   305.5642      -1145.9107      1258.4877      2845.0635      2.4533498    
     60000   302.31143     -1214.1685      1245.8855      2735.1158     -2.3865686    
     65000   300.64364     -1238.4285      1248.228       2698.2842     -9.2657766    
     70000   298.8918      -1282.356       1255.5964      2646.0595      0.097354041  
     75000   306.06976     -1308.8804      1254.9915      2683.1185      25.432361    
     80000   306.37306     -1314.5869      1287.4984      2712.6312     -2.3000172    
     85000   295.75947     -1292.407       1258.7931      2611.1945      13.538459    
     90000   300.14137     -1305.6353      1257.494       2635.8519      12.633374    
     95000   294.28402     -1315.3405      1297.959       2614.2328      4.0598344    
    100000   297.22928     -1317.2327      1228.8284      2569.5478     -4.8545236    
    105000   295.45985     -1321.5272      1214.8996      2535.5015      11.496911    
    110000   295.14687     -1308.3808      1245.1463      2576.0958      4.4959581    
    115000   304.63803     -1396.1142      1265.7826      2593.8727     -3.1988732    
    120000   304.87925     -1426.0551      1264.5599      2564.8662      22.348421    
    125000   296.11249     -1458.4738      1319.8035      2509.2949      9.7458038    
    130000   292.43628     -1485.2407      1245.9383      2375.7886      12.117649    
    135000   301.60915     -1490.6336      1268.3991      2474.8843      8.4693511    
    140000   312.12394     -1499.8268      1251.7037      2543.0234      1.054812     
    145000   288.91587     -1470.0516      1312.4184      2425.9768      13.120337    
    150000   300.13203     -1487.0889      1254.2801      2451.1009      4.3994808    
    155000   299.68812     -1507.9874      1210.0304      2381.9832     -3.0803719    
    160000   299.91759     -1493.5266      1254.079       2442.5446     -18.251372    
    165000   298.7267      -1464.0952      1286.4539      2493.7013     -10.103605    
    170000   301.51748     -1479.4225      1267.6049      2484.4814      25.221063    
    175000   298.94936     -1469.5477      1289.5693      2493.3554      1.5727696    
    180000   299.31146     -1491.4226      1291.0044      2476.1536     -11.901728    
    185000   299.23848     -1512.1425      1223.138       2386.9147     -8.898848     
    190000   302.77846     -1489.609       1248.6383      2466.6045      0.67922541   
    195000   299.80014     -1478.4961      1201.1051      2403.5508      7.4487448    
    200000   297.30549     -1475.9579      1266.1916      2448.8672      8.1783912    
    205000   302.078       -1498.8095      1244.4843      2446.9862      13.610066    
    210000   293.38007     -1499.313       1277.4416      2401.6593      4.549077     
    215000   297.4323      -1480.509       1271.0336      2450.2922      7.2737968    
    220000   299.81143     -1463.2501      1270.9459      2488.7385      5.3158477    
    225000   290.90262     -1502.3543      1305.0729      2404.0949     -6.3998403    
    230000   301.88512     -1497.3107      1241.4928      2443.7687      14.554174    
    235000   305.37144     -1494.9512      1224.6376      2460.4491      10.28706     
    240000   292.3233      -1489.7172      1223.5149      2347.8784      1.4133667    
    245000   298.35013     -1522.4156      1241.6886      2387.2482     -3.3523879    
    250000   293.63329     -1505.8286      1302.9015      2422.868       26.241047    
    255000   299.24923     -1498.6728      1224.6021      2401.9446     -1.7451467    
    260000   304.86783     -1518.8679      1224.471       2431.8624      15.019817    
    265000   293.10861     -1503.3828      1230.3664      2348.0869      18.628811    
    270000   299.53307     -1475.3776      1237.9284      2441.1043      14.162075    
    275000   298.66269     -1459.3046      1289.7746      2501.2402      16.840901    
    280000   298.30538     -1453.4839      1302.6192      2516.7103     -1.6824522    
    285000   297.8343      -1501.2327      1251.3227      2413.4524      10.764994    
    290000   297.45822     -1527.6369      1317.8658      2450.2284     -5.2084806    
    295000   299.08683     -1496.2688      1207.7197      2386.014       21.419895    
    300000   306.19435     -1512.9785      1301.435       2526.5781     -6.1325537    
    305000   302.26839     -1477.4912      1310.069       2535.5918     -9.3414682    
    310000   300.21687     -1451.0857      1236.5574      2470.1401      11.564626    
    315000   300.38401     -1471.3053      1269.5835      2484.4413      5.5903557    
    320000   295.27047     -1453.4684      1240.8775      2427.8447      0.21810715   
    325000   294.96831     -1447.765       1253.9883      2443.9568      7.8281935    
    330000   303.69423     -1456.2528      1259.7672      2519.2788      7.5240729    
    335000   297.74966     -1493.3917      1265.0928      2434.3066      13.464555    
    340000   295.43222     -1503.7603      1212.3025      2350.4243      5.3100001    
    345000   300.31533     -1505.1551      1260.9501      2441.3439      12.034096    
    350000   291.29376     -1480.1238      1281.0499      2405.8003      15.570051    
    355000   301.62308     -1435.2531      1273.3296      2535.3199     -1.8097257    
    360000   294.13081     -1409.2336      1276.6472      2497.6579      5.4444045    
    365000   301.46142     -1460.3637      1313.2213      2548.6552      23.532138    
    370000   300.31916     -1435.3817      1229.0642      2479.2657      11.968219    
    375000   301.55963     -1438.3341      1280.8291      2539.171      -3.1500055    
    380000   304.16179     -1474.4769      1249.4885      2494.9572      10.462978    
    385000   306.55438     -1488.0171      1237.0349      2490.359       29.443185    
    390000   296.83876     -1484.5991      1299.6982      2469.559      -2.8291931    
    395000   299.83437     -1471.3421      1284.5765      2494.4823      10.633138    
    400000   299.32789     -1511.2337      1301.2353      2466.7204      16.343595    
    405000   296.48584     -1496.2128      1238.4566      2393.5477     -11.123465    
    410000   301.98682     -1492.1647      1220.2147      2428.5461     -3.5261128    
    415000   302.14191     -1471.8066      1262.6651      2492.7414     -1.3030639    
    420000   304.12195     -1441.2366      1269.0998      2547.4524      27.346213    
    425000   295.16135     -1427.7602      1295.762       2507.4616     -1.9357359    
    430000   299.21192     -1411.0131      1212.1934      2476.8619      10.786206    
    435000   301.22222     -1431.7278      1253.3087      2515.2397     -12.96186     
    440000   306.48706     -1415.0266      1263.7073      2589.4199      9.4724896    
    445000   303.22408     -1432.2726      1223.7441      2503.0316     -0.83078568   
    450000   308.26904     -1407.6657      1282.3786      2631.3873      16.392137    
    455000   308.13272     -1438.6739      1253.6518      2570.4332     -7.0016613    
    460000   304.81756     -1472.2105      1259.1329      2512.7321      10.941843    
    465000   291.71328     -1457.9327      1273.4614      2424.1544      10.040116    
    470000   297.90281     -1481.7928      1229.5961      2411.7784      9.5179887    
    475000   293.87198     -1515.0848      1240.9359      2353.7808     -10.880811    
    480000   299.2091      -1503.8157      1241.9358      2413.7767     -0.76614869   
    485000   289.29185     -1535.1076      1274.9763      2326.8408     -9.930972     
    490000   301.33356     -1531.2653      1269.8614      2433.2504     -5.2875889    
    495000   299.66408     -1560.7683      1276.9561      2395.9129     -1.1421743    
    500000   295.90596     -1526.1281      1278.0932      2398.0836     -5.7129376    
    505000   304.11358     -1521.8132      1257.3004      2455.0017      17.837549    
    510000   302.92388     -1544.4742      1276.6507      2441.0521     -5.0878681    
    515000   303.65885     -1551.3521      1325.3318      2489.4277      1.6939014    
    520000   298.68922     -1520.1527      1258.9273      2409.7821      0.75362763   
    525000   301.98574     -1540.2035      1275.6138      2435.8967      2.6984137    
    530000   299.15192     -1491.619       1235.3376      2418.8637      19.04697     
    535000   289.6252      -1437.2154      1266.9641      2419.7018     -2.6040169    
    540000   294.45713     -1462.5926      1236.1248      2406.6945      3.3573462    
    545000   308.1004      -1442.6719      1248.5946      2561.089       3.1179304    
    550000   300.16815     -1435.2721      1247.3867      2496.3474      3.4957103    
    555000   308.266       -1488.6757      1223.9094      2491.881      -3.0466727    
    560000   297.56353     -1458.7054      1238.4214      2440.6571      1.3264475    
    565000   295.35096     -1479.4178      1290.5134      2452.2509      16.119654    
    570000   291.89109     -1490.5956      1243.6857      2363.3057      9.1989504    
    575000   297.51665     -1474.053       1266.3093      2452.7781      14.463918    
    580000   299.87456     -1480.1415      1242.7886      2444.2545     -8.4904304    
    585000   295.45009     -1510.6839      1230.9473      2362.3052      7.1279236    
    590000   302.19746     -1474.651       1223.3817      2451.1104      11.483783    
    595000   310.91604     -1447.5298      1235.1779      2567.9931      5.6604395    
    600000   295.52845     -1421.431       1262.4399      2483.7514     -0.94449126   
    605000   298.35334     -1454.6083      1282.2122      2495.6078      5.804238     
    610000   295.41766     -1446.7351      1267.0367      2462.0534      13.873112    
    615000   306.24706     -1438.6769      1307.5171      2607.433       11.54741     
    620000   302.78671     -1410.8489      1267.916       2564.7162     -7.9099903    
    625000   298.50754     -1408.4075      1263.6094      2524.5847      13.105518    
    630000   295.32506     -1419.8749      1227.8851      2448.934       7.2303071    
    635000   301.93289     -1418.7999      1222.5346      2503.7485      11.492993    
    640000   296.75913     -1435.2542      1277.858       2496.3516      9.0453539    
    645000   296.4661      -1440.0866      1252.5043      2463.5451      4.9222039    
    650000   301.89842     -1426.1654      1235.0961      2508.6362     -8.6991432    
    655000   306.75805     -1439.2206      1291.9953      2595.9372      15.088427    
    660000   301.93571     -1445.6055      1289.682       2544.1155      6.8789765    
    665000   300.37602     -1495.3283      1248.0074      2438.7706      8.053933     
    670000   296.96699     -1466.2056      1294.1119      2483.5128     -19.682644    
    675000   300.08484     -1500.093       1232.1119      2415.5066      2.883599     
    680000   302.19804     -1514.4934      1261.4243      2449.3158     -7.5065878    
    685000   297.99712     -1492.9775      1262.7902      2434.6311      9.6391785    
    690000   293.81747     -1483.7688      1232.7869      2376.4603      1.5515527    
    695000   294.87578     -1508.1639      1330.6238      2459.3661      11.631235    
    700000   299.67056     -1519.3166      1288.1078      2448.5742     -3.1339418    
    705000   303.11549     -1527.9444      1280.4413      2463.0861     -26.741521    
    710000   297.50813     -1507.7062      1263.7708      2416.5103      12.005537    
    715000   301.17129     -1512.7498      1287.9249      2468.3783      3.9731274    
    720000   294.39103     -1508.1602      1309.9119      2434.3229     -3.7446572    
    725000   304.01921     -1555.3055      1282.8454      2446.2104      10.945392    
    730000   303.27029     -1541.0625      1287.344       2458.2549      7.3151143    
    735000   305.23953     -1498.8911      1273.2988      2503.9908      10.144332    
    740000   301.68326     -1515.8344      1286.1073      2468.0544      1.8877199    
    745000   297.95809     -1514.8599      1296.1625      2445.7719      0.39905195   
    750000   300.00506     -1527.5856      1274.8062      2429.9949     -6.0961104    
    755000   300.05255     -1500.3732      1260.8161      2443.6418      30.422187    
    760000   310.01302     -1508.6964      1279.2613      2542.8347     -1.146387     
    765000   296.03961     -1533.5725      1239.1939      2352.9349     -13.876707    
    770000   299.2898      -1511.1457      1308.4908      2473.7232      0.804032     
    775000   296.75482     -1531.3732      1302.3471      2424.6831      2.0796025    
    780000   294.65306     -1547.7518      1246.9076      2334.0702      5.4929441    
    785000   301.00375     -1531.6718      1247.4639      2407.4971      2.5134729    
    790000   297.83394     -1495.8247      1210.8699      2378.4044      10.426594    
    795000   300.42033     -1470.3422      1284.8805      2501.0261      19.306872    
    800000   302.33543     -1476.9921      1326.8556      2553.477      -8.6145921    
    805000   304.19761     -1458.6967      1294.0958      2555.6649     -1.6375673    
    810000   305.75851     -1477.4066      1271.9529      2528.7704     -1.5190429    
    815000   302.84739     -1468.4557      1290.6711      2530.407       10.923483    
    820000   305.49186     -1510.695       1251.4848      2472.6295     -0.39880177   
    825000   295.46396     -1532.3304      1245.6272      2355.4626      3.4526539    
    830000   293.89745     -1499.0245      1283.9847      2413.1176     -10.817373    
    835000   298.05969     -1462.3024      1254.3502      2457.4258      14.008653    
    840000   289.89297     -1469.9883      1233.6875      2356.0468     -0.090463855  
    845000   308.56371     -1492.2815      1281.0649      2548.0929      1.4867588    
    850000   295.72675     -1519.3382      1324.7034      2449.881       16.381135    
    855000   300.31436     -1525.1111      1261.1855      2421.6146      13.058907    
    860000   308.62417     -1516.5539      1236.4155      2479.7117      6.3647528    
    865000   293.48792     -1548.5175      1274.4647      2350.4424     -12.897691    
    870000   300.96219     -1522.5732      1218.2352      2386.9954      31.518337    
    875000   301.92227     -1545.2341      1258.2311      2412.9159     -4.9766374    
    880000   302.40302     -1523.4185      1264.3183      2445.1177      0.77634418   
    885000   299.28029     -1533.1348      1290.3271      2433.4854      10.155038    
    890000   295.88636     -1498.9728      1305.1538      2452.1241     -4.4718638    
    895000   298.50355     -1498.1387      1261.5826      2432.791      -4.8566339    
    900000   300.66851     -1530.8844      1244.2754      2402.0981      0.90062746   
    905000   306.20725     -1519.0748      1285.0909      2504.253      -3.1471877    
    910000   297.59154     -1506.7098      1212.2768      2366.7586      2.7443098    
    915000   294.6674      -1514.9041      1234.7425      2354.8812      8.0838192    
    920000   296.4415      -1520.858       1285.7567      2415.8061      7.960999     
    925000   299.53684     -1504.1029      1264.4299      2438.9142      8.8028271    
    930000   301.80199     -1516.8405      1268.6909      2450.6936      6.3765223    
    935000   304.4821      -1514.9924      1177.8382      2385.6558      4.5476043    
    940000   299.61468     -1522.2713      1246.3083      2403.3203     -8.8528398    
    945000   300.76362     -1512.2734      1207.277       2384.5613      3.7693226    
    950000   295.40504     -1563.9738      1241.5775      2319.2427      7.7243253    
    955000   293.01176     -1567.1508      1279.5027      2332.5892     -5.8404533    
    960000   294.88878     -1537.6558      1278.4292      2377.7957     -16.551904    
    965000   303.93474     -1525.3943      1291.5154      2484.0362      10.446027    
    970000   296.62969     -1537.7644      1293.1906      2408.0164      8.1148185    
    975000   301.55528     -1517.5361      1260.3836      2439.4845      7.471088     
    980000   294.58023     -1540.7518      1254.358       2347.8693      11.494748    
    985000   308.97094     -1535.9648      1308.6729      2535.6592      23.377606    
    990000   292.97164     -1520.0953      1277.7063      2377.4895      2.554376     
    995000   297.69888     -1530.3684      1236.4178      2368.2008     -8.1753083    
   1000000   301.97959     -1491.5865      1247.0913      2455.9362      12.274814    
   1005000   295.07722     -1530.7662      1201.4083      2309.3495      4.9381655    
   1010000   299.07286     -1492.2102      1239.1852      2421.4131      5.7027306    
   1015000   297.61198     -1493.3542      1252.5291      2420.5492      9.9657699    
   1020000   292.25622     -1481.9202      1279.1911      2410.7517      5.9982277    
   1025000   299.50563     -1461.1988      1255.4368      2472.5462      8.304229     
   1030000   301.88555     -1452.1173      1248.5027      2495.9759      7.5067176    
   1035000   303.70294     -1428.6227      1268.9993      2556.2189      11.80067     
   1040000   302.75087     -1470.0876      1242.1941      2479.435       2.4280253    
   1045000   301.72225     -1420.7153      1252.702       2530.1168      21.121564    
   1050000   308.14586     -1384.4967      1270.994       2642.0701     -9.5481046    
   1055000   300.28976     -1389.0296      1237.2921      2533.5826     -16.286114    
   1060000   300.07934     -1364.277       1260.2077      2579.3692     -5.6600268    
   1065000   298.12908     -1398.6491      1255.9905      2523.3398      12.840611    
   1070000   301.30283     -1390.3851      1290.571       2594.5653      8.4672195    
   1075000   297.72995     -1400.4637      1272.9096      2534.8752      10.978773    
   1080000   298.91371     -1421.1546      1238.7987      2490.6591      15.891877    
   1085000   302.01182     -1467.5978      1269.9596      2503.0814      16.669523    
   1090000   295.49828     -1459.6762      1277.6556      2460.4521     -3.4926862    
   1095000   298.73226     -1468.5665      1280.3982      2483.224       1.4559114    
   1100000   302.12432     -1440.8612      1228.7421      2489.6065     -7.3704192    
   1105000   296.38286     -1458.3608      1231.659       2423.6812      18.667108    
   1110000   300.18674     -1501.5388      1273.5504      2456.4105     -0.77903025   
   1115000   301.18856     -1507.0075      1284.1246      2470.4748     -4.1642755    
   1120000   298.96641     -1508.1584      1248.4794      2413.8072      2.2643703    
   1125000   295.84024     -1527.9455      1253.6576      2371.2428      2.2188085    
   1130000   300.72141     -1491.6801      1254.3672      2451.8673      1.5336691    
   1135000   300.93894     -1521.3593      1241.3362      2411.1024      5.3139192    
   1140000   296.04193     -1545.1793      1288.0728      2390.2278     -2.3461306    
   1145000   297.95958     -1524.9489      1290.6973      2430.2312     -16.759993    
   1150000   301.54722     -1498.7577      1270.0364      2467.8436      5.7895333    
   1155000   303.21694     -1514.2134      1263.3106      2460.5934      0.57136844   
   1160000   295.46819     -1538.2313      1282.4397      2386.412      -10.664798    
   1165000   300.24438     -1505.8559      1254.3944      2433.4529      21.289879    
   1170000   294.93918     -1469.3304      1265.6213      2433.7639      29.032039    
   1175000   297.82399     -1552.4042      1276.9738      2387.8398      24.854099    
   1180000   297.99184     -1512.3418      1290.32        2442.7494      3.0850285    
   1185000   300.39803     -1513.2521      1265.4651      2438.5014      20.184653    
   1190000   297.3901      -1517.6327      1290.6648      2432.4223     -1.546949     
   1195000   304.54863     -1522.3944      1294.7199      2495.7304      0.32504688   
   1200000   292.80205     -1512.9377      1288.3798      2393.8039      12.354767    
   1205000   301.98443     -1512.9354      1232.0627      2419.602      -0.94164536   
   1210000   303.02599     -1543.3765      1277.1622      2443.5744      3.3274529    
   1215000   307.26865     -1548.0928      1263.3534      2462.989      -0.829463     
   1220000   302.41427     -1509.4542      1243.0398      2437.9041      7.1368968    
   1225000   308.67096     -1515.9563      1265.7884      2510.1005     -5.8952756    
   1230000   301.80433     -1482.9865      1274.1389      2490.0165      24.325014    
   1235000   297.0176      -1457.1856      1212.6485      2411.5221      18.125783    
   1240000   289.82917     -1474.0466      1270.0577      2387.7883      15.229856    
   1245000   297.33159     -1463.6927      1249.8268      2445.0012     -1.1119328    
   1250000   303.23519     -1454.4803      1291.6086      2548.7879     -8.7105192    
   1255000   303.89326     -1458.3021      1235.1646      2494.4068     -0.076441747  
   1260000   297.8225      -1472.7363      1303.7637      2494.2843     -1.1073239    
   1265000   299.5735      -1453.6817      1260.4431      2485.6765      3.958089     
   1270000   293.88155     -1457.086       1261.9571      2432.8864      0.11420814   
   1275000   306.04976     -1440.784       1272.9547      2568.9993      1.665465     
   1280000   298.79853     -1478.6459      1270.6851      2464.0243     -2.3752697    
   1285000   304.20572     -1481.0702      1264.0985      2503.3667      0.77143604   
   1290000   299.96695     -1471.8664      1257.39        2467.957       2.2685469    
   1295000   299.54891     -1427.1068      1250.8875      2502.476       19.972295    
   1300000   300.40929     -1456.2433      1260.836       2490.9818      18.193437    
   1305000   290.48937     -1462.8873      1317.3229      2452.1165      7.7169352    
   1310000   308.46597     -1450.4345      1291.5299      2599.5308      18.620746    
   1315000   298.60707     -1484.6673      1264.0535      2449.6591      9.3125858    
   1320000   299.86954     -1472.5678      1290.1703      2499.1649      16.172781    
   1325000   299.27945     -1474.1264      1244.6532      2446.8124      5.1108581    
   1330000   295.76998     -1488.4747      1217.7949      2374.2226      11.273393    
   1335000   300.91485     -1507.5151      1264.9802      2448.3751      17.791973    
   1340000   298.38787     -1457.2032      1276.4992      2487.6086      14.032242    
   1345000   306.01041     -1431.9567      1276.8327      2581.3527      5.1568219    
   1350000   300.15142     -1424.2335      1275.1786      2535.0282      12.991719    
   1355000   300.18342     -1436.6177      1229.1644      2476.916      -6.0921074    
   1360000   296.83852     -1454.9801      1229.6135      2429.0912      6.2470721    
   1365000   291.35441     -1481.0791      1242.5077      2366.8451      0.95194897   
   1370000   300.36308     -1470.9735      1204.421       2419.4233      4.7894768    
   1375000   298.14162     -1458.8611      1285.6296      2492.879      -3.754098     
   1380000   300.4711      -1460.7709      1237.6353      2463.8063      4.1243507    
   1385000   296.75234     -1449.2046      1310.4139      2514.8964      6.6804099    
   1390000   306.04524     -1445.256       1260.2663      2551.7985      1.1303271    
   1395000   296.65196     -1453.2253      1284.5776      2484.1417     -3.8006187    
   1400000   304.4783      -1431.5219      1283.7221      2574.9761     -14.816516    
   1405000   295.82843     -1446.4739      1213.9746      2412.9258      5.1452646    
   1410000   306.35245     -1470.7004      1275.4855      2544.3205      4.1106464    
   1415000   305.75362     -1436.8335      1254.2501      2551.597       13.918111    
   1420000   299.16568     -1458.2852      1289.8617      2506.8448      6.3253166    
   1425000   293.44147     -1410.7937      1294.5314      2507.8175     -13.124464    
   1430000   292.17809     -1404.6973      1255.4451      2463.53        15.184604    
   1435000   296.51154     -1409.7695      1253.201       2494.9652     -3.2559268    
   1440000   301.94396     -1381.6202      1257.7487      2576.2413      4.738658     
   1445000   299.32568     -1411.9323      1254.6082      2519.3749     -2.4108709    
   1450000   291.82945     -1414.4756      1261.2976      2456.4864     -4.5702156    
   1455000   299.30725     -1399.7089      1270.564       2547.3893      12.536705    
   1460000   298.75072     -1403.7935      1287.3943      2555.1583      6.0403606    
   1465000   306.61406     -1450.3194      1229.8256      2521.381      -13.29845     
   1470000   301.14172     -1422.8294      1264.2263      2534.3358     -13.977854    
   1475000   304.67692     -1489.095       1231.3631      2466.8202      7.4162535    
   1480000   300.28026     -1527.6231      1299.2532      2456.8653      6.763086     
   1485000   304.20727     -1519.9658      1282.9303      2483.3167      10.691317    
   1490000   296.25479     -1508.9246      1241.1285      2381.4416      1.1097892    
   1495000   304.13932     -1509.5664      1291.9772      2502.1554     -7.6625394    
   1500000   299.76334     -1482.0306      1258.0418      2456.6239     -1.047252     
   1505000   295.47658     -1449.3716      1235.3888      2428.2958     -10.562307    
   1510000   292.6635      -1461.4319      1244.6164      2400.3074     -6.0712009    
   1515000   294.10864     -1445.1488      1242.5778      2427.475      -14.635222    
   1520000   293.33936     -1422.062       1245.4956      2446.6004      4.1150927    
   1525000   301.83765     -1429.5858      1223.0791      2492.6554     -3.6637087    
   1530000   307.10733     -1422.7833      1238.6026      2562.1051      27.106802    
   1535000   298.25901     -1420.9351      1303.0655      2549.2908      16.730631    
   1540000   304.55814     -1430.1255      1234.8652      2528.2296     -4.8076004    
   1545000   300.85512     -1418.6174      1248.448       2520.2065      17.91648     
   1550000   297.99858     -1412.789       1254.4511      2506.4936      20.071099    
   1555000   302.11248     -1414.9243      1271.4665      2558.162       19.145203    
   1560000   297.903       -1446.9654      1255.3494      2472.3608      7.8326215    
   1565000   293.71269     -1475.1359      1258.7565      2410.1258      6.3418391    
   1570000   297.84728     -1418.7597      1266.8185      2511.5373      11.401136    
   1575000   294.23452     -1403.7426      1312.2159      2539.6449     -2.9652029    
   1580000   303.70146     -1480.1141      1231.3516      2467.0666     -10.111274    
   1585000   303.97355     -1494.0105      1275.7154      2499.9672      4.1695381    
   1590000   301.76449     -1472.2254      1257.2113      2483.4937     -8.6841308    
   1595000   302.64273     -1526.6246      1267.936       2447.6728      6.4784227    
   1600000   303.7806      -1533.4657      1281.0093      2464.0804     -2.0496596    
   1605000   304.44279     -1521.3376      1274.7088      2475.8295      1.3984753    
   1610000   307.82809     -1528.4773      1275.51        2499.764      -2.4901311    
   1615000   294.6254      -1531.2984      1275.853       2379.2217      15.291338    
   1620000   298.87749     -1487.2843      1251.5033      2436.9101     -7.3727334    
   1625000   298.58542     -1497.4308      1206.9564      2379.6048      3.5718946    
   1630000   292.37674     -1485.39        1303.1974      2432.366       5.9191939    
   1635000   301.67038     -1495.1356      1282.1517      2484.6823      15.874026    
   1640000   295.31527     -1496.1018      1245.7412      2390.4755      11.243816    
   1645000   305.36376     -1463.6908      1207.9417      2474.945       18.089454    
   1650000   300.2357      -1455.8803      1262.4249      2491.3814      9.3946967    
   1655000   300.98211     -1436.871       1260.5274      2515.1679      5.6188378    
   1660000   312.00075     -1443.5873      1292.6237      2639.0814     -1.5675538    
   1665000   308.23672     -1458.9004      1256.832       2554.3169     -3.7505641    
   1670000   300.0509      -1482.9969      1279.2043      2479.3916     -12.143394    
   1675000   302.8712      -1478.6127      1285.8896      2515.6815     -1.5664148    
   1680000   300.88431     -1463.0303      1289.531       2517.1376      1.857044     
   1685000   300.09158     -1479.8693      1231.938       2435.6167      9.3754634    
   1690000   303.0958      -1446.9761      1254.2785      2517.7154     -6.5493554    
   1695000   303.48142     -1473.1214      1255.7141      2496.4541     -13.34069     
   1700000   300.9338      -1484.7651      1293.3457      2499.66       -8.7730802    
   1705000   297.9649      -1454.3642      1226.3154      2436.4815      4.479689     
   1710000   305.26947     -1482.9943      1318.5066      2565.3631      6.1774128    
   1715000   301.04357     -1455.4017      1214.7706      2451.43        15.180582    
   1720000   299.16035     -1448.7911      1235.1842      2461.6136      13.0684      
   1725000   312.3504      -1446.9078      1293.6789      2639.9427      11.53947     
   1730000   300.78356     -1492.4374      1246.4841      2443.7826      11.858559    
   1735000   297.85051     -1485.0466      1279.625       2458.0859      19.337508    
   1740000   295.52793     -1520.5444      1240.6887      2362.8822      8.3454995    
   1745000   297.97567     -1529.2692      1235.2954      2370.6529      0.45042877   
   1750000   291.74077     -1529.2187      1221.7121      2301.3648     -5.4412336    
   1755000   305.62679     -1503.3963      1228.0485      2457.6985      10.264181    
   1760000   298.53752     -1528.5701      1260.413       2401.4938      7.4556533    
   1765000   298.8148      -1504.9978      1223.4753      2390.6079     -25.364571    
   1770000   297.56695     -1479.234       1250.9531      2432.6908     -8.8203332    
   1775000   295.59227     -1478.9096      1273.5361      2437.9397     -1.8951352    
   1780000   288.51596     -1475.6648      1255.1038      2359.4728     -8.420277     
   1785000   306.4316      -1479.6836      1263.9266      2524.4861      3.5713912    
   1790000   299.85135     -1463.8233      1258.8536      2476.4301      8.096031     
   1795000   302.1177      -1485.8694      1189.0795      2404.8766     -0.75822844   
   1800000   296.68243     -1470.019       1215.8501      2398.893      -7.9154695    
   1805000   294.62921     -1461.3355      1255.9224      2429.288      -16.295876    
   1810000   301.95093     -1440.2863      1262.8653      2522.7541      6.8992062    
   1815000   297.23094     -1473.0832      1274.8294      2459.7131      12.008608    
   1820000   293.07442     -1475.8342      1293.1498      2438.113       5.6633202    
   1825000   293.5715      -1479.4963      1228.9409      2374.6873      26.843738    
   1830000   297.31592     -1497.3516      1337.8259      2499.2012      4.1855417    
   1835000   300.41734     -1466.4271      1317.288       2537.322      -5.4201511    
   1840000   298.48207     -1487.3724      1276.0339      2457.8166      1.6116103    
   1845000   298.08686     -1513.5385      1244.091       2396.1734      26.625129    
   1850000   302.80434     -1501.6009      1290.6526      2496.8583      3.1178526    
   1855000   298.70241     -1485.7081      1246.3477      2431.765       2.1324154    
   1860000   293.64823     -1477.0496      1254.1595      2403.0387     -6.1412888    
   1865000   298.48864     -1453.0631      1322.8213      2538.972       2.2026829    
   1870000   300.39605     -1478.3478      1246.6808      2454.6038      7.5077671    
   1875000   300.78483     -1471.7387      1296.6585      2514.667       3.4069257    
   1880000   307.48297     -1457.93        1295.6678      2587.3828      15.518196    
   1885000   296.06922     -1464.8423      1241.7049      2424.441       8.7446637    
   1890000   300.43279     -1484.1646      1250.2656      2452.7002      1.9819337    
   1895000   302.89409     -1511.1492      1300.785       2498.2451     -15.731947    
   1900000   293.97474     -1483.5832      1297.7313      2442.9967      15.197834    
   1905000   294.17811     -1503.9988      1299.835       2426.5034      14.618066    
   1910000   297.37711     -1513.9641      1218.5335      2363.8434     -2.5688094    
   1915000   303.3932      -1532.8275      1262.1219      2442.3669      0.91059075   
   1920000   297.34915     -1492.64        1288.0128      2454.3968     -7.7579331    
   1925000   301.25715     -1494.3801      1256.3418      2455.9326      4.1767467    
   1930000   298.06987     -1501.4319      1238.2653      2402.3025     -2.5553179    
   1935000   299.79214     -1456.2626      1276.6057      2501.2133     -2.3381472    
   1940000   305.14621     -1431.8461      1290.6912      2587.5937      17.579152    
   1945000   305.64763     -1415.1758      1222.5567      2540.6135      4.615688     
   1950000   298.9997      -1417.8261      1270.8149      2526.7727      9.6985343    
   1955000   294.94871     -1443.0364      1253.7656      2448.2874      0.72494593   
   1960000   302.45658     -1426.5928      1277.0099      2555.1139     -2.250322     
   1965000   302.81892     -1404.7119      1264.3216      2567.5468     -11.548281    
   1970000   289.16184     -1442.8625      1283.6463      2426.5933     -5.7571108    
   1975000   292.35124     -1449.1205      1240.045       2405.255       0.50053807   
   1980000   303.75172     -1443.88        1283.169       2555.5675     -2.0259988    
   1985000   297.43155     -1447.7083      1244.1968      2456.2494      0.92312167   
   1990000   300.35027     -1430.1524      1284.4294      2540.1383     -8.2214106    
   1995000   298.01677     -1427.2193      1276.686       2514.4608      1.1456685    
   2000000   298.92348     -1503.3471      1261.0968      2430.8521      1.4364698    
   2005000   306.13562     -1460.4455      1288.407       2565.5579     -1.1446764    
   2010000   299.6645      -1457.4292      1283.5877      2505.8874      6.389733     
   2015000   302.58372     -1469.3119      1224.8007      2461.3226      13.600505    
   2020000   289.27237     -1476.5247      1260.3582      2370.6315      3.5591607    
   2025000   297.87488     -1460.6935      1264.1033      2467.135      -9.7242739    
   2030000   293.86756     -1505.1596      1232.1903      2354.9208      12.587536    
   2035000   305.82464     -1511.3399      1260.932       2484.4076      21.955725    
   2040000   300.55953     -1520.1264      1160.0126      2327.6187      2.2719406    
   2045000   299.31475     -1522.9188      1279.7936      2433.4761      18.160994    
   2050000   296.94706     -1512.6488      1261.8324      2404.612       5.7597638    
   2055000   292.61406     -1527.9123      1297.9536      2386.7221      1.7596934    
   2060000   300.66166     -1438.4704      1266.6385      2516.814       9.7503905    
   2065000   307.31255     -1460.9793      1289.9422      2577.0839      18.292714    
   2070000   297.93358     -1466.7763      1263.3741      2460.848       3.6969467    
   2075000   303.50655     -1507.2471      1251.9045      2458.7435      13.265982    
   2080000   310.38876     -1465.9097      1261.9737      2571.6939      6.5540095    
   2085000   302.77651     -1481.6827      1274.468       2500.3431      13.031578    
   2090000   304.62441     -1461.0033      1259.6311      2522.7103      2.8832437    
   2095000   300.84859     -1435.8858      1267.852       2522.2838      8.1941172    
   2100000   300.48971     -1435.9392      1265.7175      2516.8865     -21.596409    
   2105000   295.90791     -1427.2031      1312.9611      2531.8938     -7.7617427    
   2110000   299.88862     -1434.0727      1289.8806      2537.541       5.7661995    
   2115000   303.98834     -1427.5214      1279.7365      2570.6096      4.1154906    
   2120000   296.0224      -1419.673       1257.0269      2484.5135     -0.39752035   
   2125000   301.36238     -1433.3989      1256.9376      2518.4507      3.5102792    
   2130000   305.35742     -1459.4269      1211.8767      2483.0872      12.157321    
   2135000   301.3655      -1474.3116      1236.4688      2457.0971      22.332143    
   2140000   298.34566     -1470.1178      1297.9901      2495.8076      3.0760649    
   2145000   289.00949     -1458.5357      1248.374       2374.2855      2.9836408    
   2150000   297.09496     -1464.6341      1234.4602      2426.5771     -3.6402166    
   2155000   306.7776      -1496.5063      1277.159       2523.99        12.805337    
   2160000   302.3379      -1485.8907      1210.5431      2428.288       4.7581817    
   2165000   302.00885     -1469.296       1257.8371      2489.2342     -9.9810943    
   2170000   307.4988      -1452.4372      1224.9133      2522.2626      11.505641    
   2175000   298.0541      -1442.2161      1251.573       2474.6849     -4.2588555    
   2180000   298.74318     -1451.6944      1275.6326      2495.4282      3.3410084    
   2185000   304.65143     -1478.7514      1290.5935      2536.1662      12.942005    
   2190000   292.35599     -1444.9424      1296.2797      2465.7103     -0.37126235   
   2195000   304.82599     -1447.1779      1244.5022      2523.2094      2.2531827    
   2200000   296.72507     -1441.5657      1243.0995      2454.977       5.7436504    
   2205000   297.30496     -1435.9666      1289.2198      2511.8819     -0.91669117   
   2210000   299.27569     -1418.9931      1289.6635      2546.9224      1.8283811    
   2215000   299.82347     -1449.1215      1233.7829      2465.8118      18.377807    
   2220000   299.38911     -1446.3454      1263.0954      2494.0162     -4.3733714    
   2225000   300.44755     -1477.5726      1254.7572      2463.9158      24.918993    
   2230000   294.5061      -1455.9107      1299.0267      2476.7162      1.9991593    
   2235000   305.41014     -1479.3891      1258.1912      2509.9109      17.345837    
   2240000   292.89613     -1467.1806      1270.4569      2422.4795      15.807137    
   2245000   298.10547     -1476.1365      1283.1013      2472.7522      17.09961     
   2250000   302.42022     -1470.3617      1324.6653      2558.6752     -1.4858646    
   2255000   294.25405     -1432.493       1250.8771      2449.7304      7.1628335    
   2260000   297.14159     -1393.4905      1269.0872      2532.7646     -0.55716768   
   2265000   300.50051     -1425.9464      1282.1114      2543.3698     -4.44931      
   2270000   304.92972     -1419.9843      1266.8324      2573.6609      7.6137848    
   2275000   299.47947     -1398.6491      1256.103       2535.5282      5.209383     
   2280000   300.60742     -1340.2853      1264.6543      2612.5299      9.4914781    
   2285000   297.66699     -1388.0974      1283.2042      2556.9731     -2.7738713    
   2290000   293.07283     -1420.5455      1298.0123      2498.2502      8.3569337    
   2295000   296.36505     -1405.1483      1234.8602      2479.9356      27.595962    
   2300000   304.70143     -1477.5827      1209.6461      2456.8346      9.7324986    
   2305000   303.28115     -1466.6442      1272.2416      2517.6679     -1.2392092    
   2310000   305.99811     -1473.1337      1261.5619      2524.7949     -0.70132729   
   2315000   295.0304      -1439.4696      1229.8787      2428.6978      15.223502    
   2320000   302.88933     -1474.8601      1229.0421      2462.7487      22.48963     
   2325000   292.09573     -1476.735       1211.1549      2346.4655      7.8704872    
   2330000   302.95385     -1473.9504      1296.3158      2531.509       18.958982    
   2335000   304.06181     -1455.1431      1215.9924      2479.9008      18.605931    
   2340000   300.49013     -1502.2677      1258.9536      2443.7979     -10.148374    
   2345000   295.54211     -1492.0202      1243.863       2394.7074     -0.44584832   
   2350000   300.46131     -1473.0128      1282.8131      2496.6546     -1.7139568    
   2355000   295.63275     -1523.2066      1266.695       2387.1636     -2.1282939    
   2360000   294.26549     -1496.8941      1256.7664      2391.3209      6.0435848    
   2365000   300.90209     -1489.374       1323.0623      2524.4842      13.522342    
   2370000   302.22579     -1489.8399      1252.353       2465.1461      29.144634    
   2375000   307.56887     -1518.9778      1267.7098      2499.1451     -0.57638238   
   2380000   296.58817     -1538.4055      1191.6039      2305.4174     -2.2072704    
   2385000   294.16541     -1543.3178      1234.204       2321.4399      7.4635657    
   2390000   301.48277     -1539.9349      1291.8767      2447.9304      10.624263    
   2395000   302.94025     -1533.7828      1266.8283      2442.0676      7.7330917    
   2400000   301.2061      -1554.7345      1226.345       2365.1251      0.78183476   
   2405000   298.0979      -1551.4756      1233.7377      2347.9817      17.10774     
   2410000   302.56312     -1532.6627      1211.602       2384.5888      4.887612     
   2415000   305.39615     -1497.5208      1279.6394      2513.1023      9.7891856    
   2420000   298.59118     -1465.6244      1249.0385      2453.5449      13.840821    
   2425000   298.51002     -1497.4496      1238.8028      2410.7582     -0.6601497    
   2430000   300.75524     -1484.3339      1209.1448      2414.2937      3.7981171    
   2435000   294.67186     -1484.2954      1282.8831      2433.6703     -5.8363004    
   2440000   302.38047     -1495.5575      1243.9577      2452.4165      16.121565    
   2445000   303.76714     -1470.8854      1302.5762      2548.1072      11.66585     
   2450000   298.57821     -1471.109       1299.2619      2498.1677      15.455962    
   2455000   310.02764     -1484.7497      1211.0573      2498.7082      11.684274    
   2460000   300.95566     -1478.6143      1289.0257      2501.6864      3.6637536    
   2465000   295.4028      -1453.6251      1276.2671      2464.2609      16.620063    
   2470000   307.01841     -1423.1181      1285.6645      2608.0371      16.762545    
   2475000   297.24669     -1430.0819      1297.0158      2525.0417      11.14732     
   2480000   302.81228     -1442.7281      1277.3057      2542.4554     -8.3394468    
   2485000   292.4682      -1433.7008      1249.4183      2431.094       13.416146    
   2490000   298.52962     -1446.9911      1244.7724      2467.3616     -0.74584586   
   2495000   304.81995     -1444.2084      1314.6132      2596.2358      9.5782316    
   2500000   296.62291     -1447.3007      1309.3506      2514.5796     -16.137564    
   2505000   296.49562     -1480.6181      1276.6573      2447.4306      2.5808791    
   2510000   305.57474     -1454.943       1203.3566      2480.9943      25.675048    
   2515000   294.63351     -1439.942       1323.3098      2518.1074     -8.9175243    
   2520000   300.09345     -1423.1457      1248.6574      2509.0763      11.02973     
   2525000   299.4386      -1420.0919      1271.4713      2529.0881      16.462456    
   2530000   305.8507      -1395.734       1247.0921      2586.4066      8.5394601    
   2535000   296.92662     -1415.7698      1252.2188      2491.6947      6.3320252    
   2540000   299.53994     -1410.3882      1291.7898      2560.0165     -1.7024547    
   2545000   299.65493     -1381.4832      1293.9559      2592.1161     -0.93759962   
   2550000   302.10857     -1408.5279      1268.6664      2561.7234      11.507666    
   2555000   302.97667     -1442.9304      1238.462       2504.8792     -10.896757    
   2560000   304.52051     -1449.7115      1282.1214      2555.5633      3.6420838    
   2565000   296.67272     -1399.4944      1234.0707      2487.5514      5.9838804    
   2570000   300.07883     -1426.7869      1248.6477      2505.2948      1.7851921    
   2575000   306.41137     -1483.9865      1253.061       2509.1368      19.927013    
   2580000   295.77527     -1485.58        1264.3949      2423.7645      4.6506191    
   2585000   297.88655     -1551.429       1260.8671      2373.2678     -4.0743049    
   2590000   293.97346     -1511.113       1245.9356      2363.6598      8.238321     
   2595000   300.45738     -1516.9417      1199.8647      2369.7422      5.9136126    
   2600000   300.6972      -1512.9278      1253.1705      2429.2064      5.7765188    
   2605000   299.21068     -1497.6177      1276.0044      2454.0574      27.300454    
   2610000   303.00817     -1468.3508      1273.47        2514.7486      28.923179    
   2615000   298.51449     -1481.464       1249.1015      2437.0825     -7.2372239    
   2620000   300.33624     -1436.4641      1254.2198      2503.4916      6.9386572    
   2625000   305.57062     -1406.3111      1273.2516      2599.4844      2.8977906    
   2630000   308.22594     -1442.5709      1247.7999      2561.5179      10.803396    
   2635000   295.56762     -1418.7844      1255.0876      2479.396       13.925529    
   2640000   299.64002     -1432.5419      1288.8782      2535.8462      1.3818053    
   2645000   285.46724     -1415.683       1311.2459      2448.3338     -0.0064784771 
   2650000   298.09679     -1406.7717      1289.6793      2548.6173      14.246291    
   2655000   302.0924      -1395.6166      1250.1696      2555.9932     -7.5177409    
   2660000   302.73212     -1421.9366      1277.5989      2562.8232     -6.2644119    
   2665000   291.80395     -1425.862       1229.4858      2413.0602      7.4076994    
   2670000   302.08128     -1378.2848      1233.5482      2556.6042      9.3485579    
   2675000   296.8289      -1413.4621      1274.0928      2515.0025      4.464971     
   2680000   293.22357     -1399.5568      1222.2373      2444.8119     -4.2618748    
   2685000   303.6335      -1381.4582      1285.7564      2619.5196      3.4381795    
   2690000   302.25339     -1372.4227      1275.0293      2605.4864      7.3230307    
   2695000   304.87852     -1394.6402      1365.3641      2697.0787      5.9242142    
   2700000   300.3044      -1425.7118      1296.2876      2556.0268      6.4602085    
   2705000   295.76934     -1406.6628      1215.3283      2453.5622     -4.9277287    
   2710000   299.19327     -1459.8741      1225.4917      2441.1325     -5.0645849    
   2715000   295.37533     -1478.4685      1252.2673      2415.1721      5.4010097    
   2720000   293.58717     -1510.0813      1291.0944      2406.3958      3.8048469    
   2725000   297.80207     -1491.1416      1279.1727      2451.1053      2.6581176    
   2730000   294.50843     -1460.695       1249.6057      2422.5318      2.4227309    
   2735000   300.68237     -1461.0996      1278.6403      2506.3717      7.1445227    
   2740000   299.16952     -1473.3663      1233.1165      2435.0527      0.51440287   
   2745000   290.20947     -1480.5386      1232.3287      2346.9681      8.9117496    
   2750000   299.90826     -1505.5922      1235.7263      2412.0427     -5.8616462    
   2755000   301.64612     -1502.0924      1284.0106      2479.3677      20.004045    
   2760000   307.7648      -1504.8969      1296.9262      2544.1945      22.015508    
   2765000   299.87849     -1460.7143      1222.0304      2442.9585     -5.6279338    
   2770000   303.58771     -1495.0435      1183.1922      2402.9607      1.1895152    
   2775000   294.9958      -1477.9253      1255.0853      2415.1393      27.370059    
   2780000   296.96116     -1447.4466      1310.9038      2519.0116      9.7144337    
   2785000   296.45686     -1492.1952      1239.4598      2398.3094      2.7353702    
   2790000   302.57402     -1459.9228      1253.0517      2498.876       1.0078884    
   2795000   298.6095      -1513.1679      1255.9879      2413.1146      18.900781    
   2800000   298.99307     -1501.3902      1283.5113      2455.8459     -3.4641746    
   2805000   304.64628     -1496.3493      1262.2877      2490.2164     -8.464578     
   2810000   302.51012     -1487.2801      1269.8036      2487.6992      32.157021    
   2815000   302.51248     -1510.152       1245.9249      2440.9696     -1.5124136    
   2820000   307.46293     -1480.0848      1273.9153      2543.2963      24.581187    
   2825000   300.01148     -1475.007       1275.3977      2483.2225      14.719992    
   2830000   299.54698     -1510.4653      1288.9621      2457.1747     -5.4159579    
   2835000   299.5164      -1503.8259      1256.7468      2431.3254      5.0987016    
   2840000   294.10658     -1528.8129      1264.7469      2365.9616     -13.160754    
   2845000   295.79808     -1477.9294      1310.3095      2477.5338      5.0909569    
   2850000   298.15467     -1530.7255      1253.9175      2389.4194      13.623244    
   2855000   304.31197     -1511.799       1239.5378      2449.0273      11.091795    
   2860000   294.55016     -1531.4283      1243.1817      2345.7476      8.7379982    
   2865000   300.24749     -1566.2495      1241.1729      2359.8656      8.4950174    
   2870000   297.14938     -1546.3365      1285.4565      2396.3576     -0.84153969   
   2875000   293.97974     -1528.0236      1234.2868      2335.1565     -2.4048376    
   2880000   301.74569     -1492.9064      1242.0846      2447.518       0.5945795    
   2885000   297.8654      -1512.6598      1325.7187      2476.6994      2.1968067    
   2890000   297.74385     -1522.2448      1262.1755      2402.4843      5.6200349    
   2895000   299.68309     -1504.216       1296.3734      2472.0525     -8.4336715    
   2900000   298.602       -1534.0028      1216.5364      2352.7611      3.8996298    
   2905000   307.11313     -1490.7195      1225.4623      2481.0805      13.389355    
   2910000   304.61791     -1501.9774      1245.5797      2467.6267      20.629252    
   2915000   303.21108     -1486.9693      1288.2922      2512.7667      15.797625    
   2920000   299.25286     -1472.4318      1283.5786      2487.1946      4.8782703    
   2925000   297.7526      -1474.8857      1277.6685      2465.4146      6.4371879    
   2930000   305.6602      -1468.7187      1223.6846      2488.311      -0.51187474   
   2935000   298.63295     -1464.8682      1300.3817      2506.0178     -13.312521    
   2940000   300.95146     -1438.6489      1260.792       2513.3804      10.23601     
   2945000   302.09693     -1419.0838      1227.9969      2510.3938     -5.7965496    
   2950000   301.12005     -1442.8901      1245.5148      2495.3697      11.701843    
   2955000   306.43508     -1436.289       1302.4026      2606.388      -9.9161314    
   2960000   300.35927     -1448.4135      1272.0615      2509.5898      16.067503    
   2965000   293.24328     -1441.1095      1285.3663      2466.5644      18.62132     
   2970000   300.61835     -1467.1904      1260.413       2481.4812     -3.784152     
   2975000   302.25308     -1488.3849      1266.7415      2481.2337      7.0403912    
   2980000   299.77788     -1471.098       1236.1362      2445.781       1.2456276    
   2985000   301.78337     -1473.8432      1284.3428      2509.1763      16.55485     
   2990000   301.82426     -1472.6308      1287.839       2514.2506      6.7781089    
   2995000   302.96079     -1479.2376      1251.192       2481.1601      34.303331    
   3000000   296.74997     -1442.2867      1263.6796      2475.0588      11.757732    
   3005000   300.47396     -1458.9891      1249.4399      2477.4182      0.58996848   
   3010000   298.7444      -1422.0799      1243.0946      2492.5156     -6.3490504    
   3015000   301.09866     -1432.4719      1281.9291      2542.0109      11.125814    
   3020000   300.72986     -1470.0262      1262.7794      2482.0089     -5.9355381    
   3025000   305.27151     -1407.8806      1222.893       2544.8816     -7.3639262    
   3030000   294.00936     -1417.616       1275.4641      2487.0063     -0.43114533   
   3035000   301.20996     -1450.2701      1292.7098      2535.9887      1.9510345    
   3040000   294.38239     -1464.1495      1291.2156      2459.56        0.91250253   
   3045000   299.50198     -1388.4909      1253.2544      2543.0391     -5.0222786    
   3050000   296.73392     -1451.7875      1243.3619      2445.0968     -8.3617321    
   3055000   300.68585     -1471.886       1260.3041      2477.2803     -3.5712626    
   3060000   297.21577     -1470.1469      1305.2094      2492.8937     -0.22895724   
   3065000   301.94819     -1488.6929      1299.5546      2511.0122      22.190184    
   3070000   299.8519      -1501.6778      1271.3924      2451.1193      15.080067    
   3075000   295.69633     -1507.7511      1255.6722      2392.1649      4.5130781    
   3080000   304.56117     -1480.9064      1287.503       2530.1137      2.2548743    
   3085000   298.17504     -1488.831       1277.4184      2454.9969      18.59074     
   3090000   300.6556      -1492.8604      1257.4099      2453.1412      3.8981649    
   3095000   303.8724      -1486.4841      1305.5149      2536.3885     -10.498919    
   3100000   294.59529     -1458.3552      1292.637       2468.6796     -7.2171626    
   3105000   300.36836     -1450.4605      1247.943       2483.5056      11.980164    
   3110000   304.82681     -1488.8764      1239.764       2476.7802      6.8471967    
   3115000   302.74935     -1506.0325      1225.0504      2426.3329      17.174271    
   3120000   295.88124     -1557.9965      1237.4523      2325.3531     -11.283847    
   3125000   304.22448     -1560.3195      1240.229       2400.4156      19.726952    
   3130000   293.25106     -1550.049       1237.033       2309.3611      17.214825    
   3135000   304.78497     -1566.4666      1228.321       2387.3728      4.9010252    
   3140000   305.63895     -1531.8853      1277.1147      2478.3845      19.090581    
   3145000   296.5801      -1533.6219      1295.9515      2414.4764      15.071052    
   3150000   300.86865     -1536.1267      1317.7411      2472.1113     -12.197302    
   3155000   298.99111     -1498.4351      1278.6918      2453.9639      24.324603    
   3160000   298.12173     -1528.3102      1308.9889      2446.6113      13.534336    
   3165000   297.13069     -1528.4755      1222.4663      2351.0613      0.24210624   
   3170000   299.5404      -1573.2859      1313.7054      2419.0385      17.417437    
   3175000   305.61409     -1581.0333      1253.9071      2405.8066      9.2995496    
   3180000   297.43966     -1516.4326      1258.3864      2401.7872     -6.8517441    
   3185000   309.50396     -1521.9143      1237.7404      2483.5437     -2.648737     
   3190000   304.33197     -1503.3649      1306.3353      2524.4379     -23.816155    
   3195000   297.46174     -1502.5145      1220.7939      2378.3103     -3.6758572    
   3200000   305.20094     -1494.2074      1289.2022      2524.2328     -10.082692    
   3205000   298.3092      -1483.5238      1271.7854      2455.8708      8.8380419    
   3210000   303.13976     -1516.4409      1259.4712      2453.8364     -24.843034    
   3215000   299.93987     -1534.3193      1256.7528      2404.6249      9.2791462    
   3220000   304.95399     -1536.6062      1232.3657      2422.7893      3.877847     
   3225000   303.56904     -1515.2293      1267.5665      2466.9822     -17.319014    
   3230000   299.70644     -1470.6095      1251.1177      2460.6121     -5.5887684    
   3235000   300.60653     -1441.0868      1231.7232      2478.7893      7.0228831    
   3240000   304.83739     -1440.5933      1267.7988      2553.1926      10.00016     
   3245000   302.35856     -1442.8777      1244.9597      2505.9024      7.1844011    
   3250000   295.64318     -1393.8167      1261.5497      2511.5014     -4.0893092    
   3255000   304.1522      -1420.8166      1260.7203      2559.7635      8.734554     
   3260000   302.7692      -1454.3207      1268.5649      2521.7365      10.189333    
   3265000   299.87493     -1462.6903      1328.7081      2547.6284      12.09978     
   3270000   303.72046     -1452.7098      1265.387       2528.6762      9.2992862    
   3275000   298.83336     -1480.7692      1278.9175      2470.4447      20.634557    
   3280000   299.21321     -1513.5058      1261.2125      2423.3999      7.6018118    
   3285000   304.81858     -1486.6112      1267.9843      2507.1919      11.204704    
   3290000   304.01436     -1458.5386      1279.99        2540.0785     -14.197454    
   3295000   297.71182     -1458.468       1286.4721      2490.2713     -22.767114    
   3300000   306.58056     -1474.3455      1208.3912      2475.6209      11.582493    
   3305000   299.53958     -1463.9843      1264.1852      2478.8127      0.036764214  
   3310000   305.6448      -1492.157       1251.0082      2492.0584      19.044983    
   3315000   296.76052     -1467.5626      1241.3469      2427.5445      6.2149122    
   3320000   306.45464     -1484.4844      1277.2387      2533.2034      8.9919341    
   3325000   296.64208     -1460.8752      1230.0427      2421.8686      21.782289    
   3330000   306.54819     -1457.0021      1257.3941      2541.6777     -2.140866     
   3335000   303.3017      -1463.6023      1281.772       2530.424       17.170288    
   3340000   302.51814     -1480.0176      1244.9386      2470.1683      17.525559    
   3345000   291.14253     -1466.6495      1247.0688      2383.9411      11.544209    
   3350000   298.24156     -1468.2669      1250.5152      2449.2526      2.8610568    
   3355000   290.35892     -1454.5445      1265.1974      2407.1672      6.2781823    
   3360000   306.49323     -1447.7422      1289.9646      2583.0167     -9.1456101    
   3365000   297.57388     -1466.8892      1240.7981      2434.9425     -3.2593871    
   3370000   300.56503     -1447.6946      1248.422       2488.5092     -21.378814    
   3375000   300.93848     -1441.7594      1311.4259      2560.7879     -20.904743    
   3380000   294.25455     -1446.6961      1296.6892      2481.3439      14.555822    
   3385000   301.45137     -1456.8485      1249.325       2488.1844      16.501138    
   3390000   300.6444      -1439.3892      1220.231       2469.3334     -1.2557224    
   3395000   299.06678     -1453.6778      1232.9773      2453.6833      1.974847     
   3400000   295.7991      -1409.4486      1293.5702      2529.2843      7.5965123    
   3405000   301.03207     -1422.6799      1255.5026      2524.7809     -3.5135206    
   3410000   306.22559     -1410.6805      1243.7218      2571.4422      8.3747581    
   3415000   303.65094     -1418.7837      1280.9226      2577.5163      1.9926224    
   3420000   304.97697     -1429.9029      1270.8357      2568.168       4.0265103    
   3425000   294.99453     -1415.2151      1252.4818      2475.2348      6.8137084    
   3430000   297.63217     -1442.9862      1259.0453      2477.614      -2.7305795    
   3435000   293.86763     -1455.3643      1260.3746      2432.9011     -15.898952    
   3440000   302.41206     -1419.5679      1284.2802      2569.011       8.3426558    
   3445000   294.98234     -1466.875       1239.0259      2410.0099      10.710967    
   3450000   297.99423     -1476.9047      1270.2366      2458.1244      9.2730609    
   3455000   299.79547     -1435.0681      1262.7253      2508.5573      3.2792519    
   3460000   299.02564     -1446.9154      1268.1991      2495.2996      23.637413    
   3465000   297.35977     -1431.6712      1269.1592      2496.6071      14.020175    
   3470000   298.93552     -1461.4427      1303.9679      2515.7353      24.804374    
   3475000   301.22822     -1478.9756      1296.3405      2511.0771      0.21567372   
   3480000   303.38987     -1465.163       1268.0457      2515.9254     -17.732697    
   3485000   299.24106     -1428.2997      1291.9682      2539.6108     -6.696226     
   3490000   299.19802     -1447.0934      1287.952       2516.416       14.209992    
   3495000   302.24684     -1426.2861      1273.3275      2549.8627     -3.862793     
   3500000   302.31325     -1415.2043      1282.2839      2570.4947      9.219969     
   3505000   298.36471     -1464.7415      1286.1006      2489.4647      7.9303633    
   3510000   304.31969     -1421.0832      1277.7465      2578.0208      9.9441965    
   3515000   296.40279     -1460.7786      1253.3826      2443.1652     -0.51786093   
   3520000   305.03676     -1445.4161      1259.8238      2542.1775      14.0959      
   3525000   296.70913     -1433.1475      1226.0394      2446.1926      9.5115739    
   3530000   303.37783     -1431.0666      1317.6321      2599.5006      7.9990528    
   3535000   298.44358     -1443.8628      1261.3338      2486.2818      20.839348    
   3540000   301.25558     -1463.7377      1260.481       2490.7003      4.9162946    
   3545000   294.32223     -1455.7687      1244.5249      2420.7122      2.3754424    
   3550000   301.24628     -1469.5763      1253.7466      2478.0441      11.062325    
   3555000   295.71906     -1461.9356      1251.8759      2434.3873      17.270084    
   3560000   299.35425     -1439.1311      1294.6496      2532.473       6.9412002    
   3565000   307.25139     -1438.1983      1258.3489      2567.7246      22.022989    
   3570000   302.11855     -1420.4169      1311.8648      2593.1219      19.165671    
   3575000   305.02314     -1432.2166      1283.3416      2578.773      -15.639488    
   3580000   301.78241     -1488.3953      1229.8295      2440.1023      0.84212522   
   3585000   300.31476     -1481.835       1280.812       2484.5208      0.76493045   
   3590000   292.89734     -1505.9088      1268.2868      2381.592       4.920372     
   3595000   293.15147     -1542.5756      1270.256       2349.167       0.5205547    
   3600000   304.70402     -1516.7646      1311.7887      2519.8185      8.3926669    
   3605000   301.75008     -1480.7069      1255.1518      2472.8239      20.60438     
   3610000   303.98084     -1479.4783      1266.159       2505.0082      23.147767    
   3615000   307.37038     -1466.3874      1213.8935      2496.1443      1.1726945    
   3620000   303.33444     -1523.558       1237.7202      2426.7093      13.37414     
   3625000   300.81242     -1513.3692      1272.9929      2449.6178     -3.5703428    
   3630000   308.25419     -1488.5075      1256.8296      2524.8637     -1.3913989    
   3635000   305.42861     -1476.044       1267.1459      2522.376      -1.9529783    
   3640000   300.43036     -1453.1163      1255.3054      2488.7666      17.353463    
   3645000   301.94438     -1457.772       1244.8113      2487.1558      12.069445    
   3650000   299.46487     -1468.0433      1252.5802      2462.4805     -4.084        
   3655000   297.16765     -1446.4304      1233.3679      2444.3384      9.5380761    
   3660000   301.56021     -1455.0065      1253.2574      2494.932       6.0103848    
   3665000   308.41052     -1475.699       1275.4368      2557.6774      22.946391    
   3670000   310.98024     -1436.7179      1259.1014      2603.3025      28.303563    
   3675000   298.03893     -1467.9976      1239.911       2437.1058     -1.064416     
   3680000   301.3346      -1486.4586      1270.8133      2479.0183      2.089854     
   3685000   294.57972     -1487.3884      1266.8118      2413.682       22.088898    
   3690000   298.35514     -1525.0767      1245.5903      2388.5335      19.159481    
   3695000   292.77689     -1507.0501      1249.3518      2360.4386      0.15208789   
   3700000   302.52287     -1520.1005      1226.6072      2411.7964     -2.2785776    
   3705000   294.3082      -1489.2703      1307.3627      2449.9229      14.235772    
   3710000   306.31495     -1478.808       1228.4982      2488.8903     -5.2910218    
   3715000   296.48068     -1466.6122      1272.3979      2457.0435      11.175377    
   3720000   299.65137     -1473.904       1227.4143      2433.1217      15.946992    
   3725000   296.02082     -1480.1085      1260.9108      2427.9479      6.8466329    
   3730000   313.75515     -1435.8547      1260.02        2629.8988      4.07896      
   3735000   297.36816     -1435.4703      1256.4332      2480.1569      3.8431704    
   3740000   305.0649      -1451.2546      1275.2823      2552.0493     -14.805268    
   3745000   299.96466     -1507.0727      1296.9722      2472.3125      11.496066    
   3750000   300.46781     -1530.028       1220.7013      2377.5858      10.154277    
   3755000   301.69504     -1475.0361      1252.688       2475.5387      11.631447    
   3760000   296.24163     -1461.5102      1260.6685      2448.2783     -15.300011    
   3765000   299.38701     -1468.7899      1213.4884      2421.946      -6.0922604    
   3770000   286.29625     -1475.9035      1275.9849      2360.2657      11.631559    
   3775000   296.55694     -1486.5101      1283.2617      2448.6914     -8.3644288    
   3780000   303.39247     -1505.5998      1229.9715      2437.4376      15.063668    
   3785000   303.50563     -1446.0126      1277.0701      2545.1354      1.6427755    
   3790000   300.77874     -1461.6925      1266.455       2494.4554      1.4523909    
   3795000   301.42654     -1449.3683      1228.1568      2474.2743     -3.011164     
   3800000   298.30911     -1491.3999      1245.8842      2422.0926      19.011591    
   3805000   315.69487     -1470.2137      1291.5151      2644.3808      14.591315    
   3810000   299.71262     -1478.7438      1297.29        2498.7054     -11.774825    
   3815000   295.12339     -1474.3357      1248.6753      2413.46        10.704718    
   3820000   303.6752      -1468.0221      1282.7232      2530.2953     -2.8935612    
   3825000   298.64848     -1495.8519      1248.1289      2422.9202      17.426678    
   3830000   299.76513     -1461.5612      1225.344       2444.4115      15.306344    
   3835000   293.47982     -1469.9897      1325.5307      2479.9637     -8.6815213    
   3840000   302.82715     -1438.4825      1250.4671      2519.9952     -2.0961937    
   3845000   296.73912     -1465.7179      1270.1683      2458.0191      9.1669255    
   3850000   303.35443     -1466.2566      1283.9545      2530.4237     -0.61640838   
   3855000   301.41384     -1460.1605      1255.2172      2490.429      -2.6097642    
   3860000   297.632       -1470.8746      1228.1653      2418.8441      2.1813337    
   3865000   300.49009     -1467.9358      1261.083       2480.2588      24.957784    
   3870000   300.99517     -1449.5296      1209.3901      2451.4887      14.381213    
   3875000   301.63414     -1464.5109      1236.5377      2469.369      -4.2838482    
   3880000   298.86107     -1464.2415      1254.3835      2462.6863      0.58520881   
   3885000   307.85287     -1453.7452      1273.7954      2573.003       1.6657613    
   3890000   301.68919     -1444.4229      1275.8429      2529.2544     -5.0334059    
   3895000   302.04738     -1396.9438      1303.5478      2607.6416      8.0862944    
   3900000   298.23849     -1411.3304      1265.1312      2520.7776     -7.8406767    
   3905000   299.01886     -1395.3872      1328.6642      2607.2322     -10.918347    
   3910000   293.86264     -1411.7204      1277.2067      2493.3324      6.761332     
   3915000   303.68555     -1438.1261      1222.746       2500.3067      6.497284     
   3920000   292.65704     -1409.6731      1300.887       2508.279       0.93319999   
   3925000   300.97164     -1440.9143      1298.0194      2548.523       7.8029769    
   3930000   299.41346     -1465.6735      1290.0268      2501.8373      5.3905721    
   3935000   303.76816     -1466.7734      1310.2375      2559.8897      11.178432    
   3940000   303.60155     -1508.7807      1342.6459      2548.8009      6.299932     
   3945000   294.84035     -1488.5388      1271.5353      2419.5857      10.276021    
   3950000   308.63511     -1515.3065      1237.5578      2482.1991      12.647135    
   3955000   298.47047     -1491.0972      1221.3263      2399.2805      14.854103    
   3960000   299.97962     -1519.7993      1270.2374      2432.9849      8.043927     
   3965000   293.55944     -1484.2928      1285.4675      2426.3095     -8.2079172    
   3970000   306.3178      -1497.2778      1304.1073      2546.055       1.2067031    
   3975000   299.27969     -1496.0389      1253.9867      2434.2356      14.99474     
   3980000   301.57315     -1455.9685      1274.7975      2515.6258      21.152829    
   3985000   305.99142     -1488.9468      1248.8191      2496.1792     -1.1406543    
   3990000   296.1505      -1490.9453      1283.9095      2441.2693     -6.8146878    
   3995000   299.60287     -1482.2642      1214.384       2411.2975      3.8323587    
   4000000   308.19574     -1474.4011      1260.319       2541.9367      2.790407     
   4005000   297.044       -1474.4278      1283.0055      2464.8729      12.074414    
   4010000   302.50414     -1440.6674      1267.5541      2532.0088      0.78683792   
   4015000   311.5059      -1438.8135      1237.0438      2583.8501      18.720913    
   4020000   296.5628      -1468.4922      1247.9363      2431.4363      20.971413    
   4025000   303.83118     -1446.7347      1281.8432      2552.0976      1.8750087    
   4030000   300.60129     -1450.0331      1260.247       2498.3199      3.7476371    
   4035000   300.73269     -1444.6222      1273.6679      2518.3268      11.224076    
   4040000   305.03979     -1484.872       1303.506       2546.4311      0.45482431   
   4045000   305.16764     -1524.7924      1268.7144      2472.8624      16.125364    
   4050000   302.88118     -1526.9392      1293.3272      2474.8818     -2.3488225    
   4055000   292.98339     -1515.3015      1273.576       2378.2581     -6.5827105    
[...]
  23945000   298.19304     -1434.3057      1288.9604      2521.2251     -7.6852679    
  23950000   305.23214     -1432.0618      1256.6699      2554.1252     -2.1875574    
  23955000   304.38964     -1455.4074      1292.4328      2559.0084     -6.2237664    
  23960000   297.70883     -1444.8746      1250.7389      2468.1047     -13.904347    
  23965000   291.17098     -1438.5117      1279.3741      2444.6385      1.730636     
  23970000   304.9096      -1415.3163      1259.149       2570.4654      2.1098916    
  23975000   300.52483     -1480.4009      1238.4312      2445.4527      10.903486    
  23980000   304.2784      -1431.4152      1229.8644      2519.4375      0.49581314   
  23985000   305.82676     -1419.3239      1279.4373      2594.9478      17.177015    
  23990000   296.1237      -1450.9514      1282.6077      2479.7218     -13.783454    
  23995000   294.97338     -1428.9838      1265.4576      2474.2527      17.817586    
  24000000   302.3307      -1451.7109      1245.2167      2497.077       3.6196507    
  24005000   305.75802     -1491.9399      1305.1979      2547.4776      15.285344    
  24010000   293.51103     -1462.4702      1252.4884      2414.7201     -4.2076766    
  24015000   290.01185     -1465.7247      1263.3501      2391.0361      13.072332    
  24020000   297.76782     -1479.0152      1267.0537      2450.8065     -2.6591144    
  24025000   291.51381     -1452.2409      1274.115       2428.716       18.311451    
  24030000   293.76159     -1443.2332      1202.2129      2385.9222      1.498322     
  24035000   298.08693     -1415.0774      1234.9149      2485.459       7.0854309    
  24040000   299.82462     -1373.296       1236.3411      2544.2059      17.104789    
  24045000   303.88299     -1413.5747      1236.2541      2540.1318      3.7093003    
  24050000   303.34749     -1430.0269      1289.9932      2572.63        3.4927727    
  24055000   297.00413     -1417.8956      1241.1805      2479.2236      8.3649783    
  24060000   297.54491     -1418.6261      1228.3261      2470.4745     -4.0842755    
  24065000   303.59828     -1417.4791      1274.1009      2571.5282      21.118273    
  24070000   298.53792     -1414.2762      1274.5506      2529.929       17.923991    
  24075000   293.67997     -1450.9808      1273.8579      2449.0898      7.2128207    
  24080000   299.32531     -1465.5039      1277.2253      2488.417       6.686429     
  24085000   307.22581     -1462.3428      1242.016       2527.0185      17.914516    
  24090000   296.74021     -1453.4975      1288.5488      2488.6299      13.209042    
  24095000   301.83172     -1432.8999      1291.0876      2557.2968      4.3072182    
  24100000   298.59535     -1429.9174      1248.3086      2488.5593     -0.16594511   
  24105000   298.88929     -1438.8793      1244.6177      2478.5351      15.978621    
  24110000   295.66966     -1455.1103      1233.1405      2422.0356     -5.9951389    
  24115000   299.24981     -1428.6132      1262.8584      2510.2657      0.68525624   
  24120000   297.59314     -1441.6964      1231.7206      2451.2301     -12.46497     
  24125000   302.04461     -1413.4998      1204.9499      2492.4629     -14.844468    
  24130000   297.33078     -1403.0849      1322.4802      2578.2549      6.2384209    
  24135000   300.90976     -1414.9523      1319.6364      2595.5486      17.164241    
  24140000   301.96807     -1414.7184      1265.9128      2551.5227     -3.6596718    
  24145000   289.93166     -1416.2354      1298.8642      2475.3225      6.5660517    
  24150000   294.26383     -1425.4269      1239.4732      2445.4799      9.7599308    
  24155000   297.4618      -1405.1252      1211.896       2466.8022      9.9073822    
  24160000   292.95473     -1387.1669      1255.5056      2488.0658      18.354898    
  24165000   301.80095     -1357.2877      1240.5728      2582.119       6.6150529    
  24170000   292.72493     -1415.8676      1288.0283      2489.8329     -3.4461456    
  24175000   304.52065     -1442.335       1261.9841      2542.8037      20.057845    
  24180000   302.38705     -1445.7525      1262.1291      2520.4516      28.788087    
  24185000   295.24158     -1494.1926      1243.2348      2389.2194     -5.0900416    
  24190000   299.13302     -1488.3844      1267.5326      2454.1243      5.7907891    
  24195000   299.74077     -1480.7887      1277.1503      2476.7725      18.633821    
  24200000   299.05046     -1480.4458      1216.4113      2410.2034     -2.9358709    
  24205000   297.1288      -1475.7747      1258.549       2439.8277      9.8049733    
  24210000   298.38886     -1479.7962      1305.9659      2494.4912     -1.2767138    
  24215000   296.59509     -1452.0655      1279.8988      2480.1142      15.316234    
  24220000   302.46395     -1449.257       1243.7095      2499.2152      12.481183    
  24225000   302.09363     -1448.8988      1279.9343      2532.4867      25.273119    
  24230000   297.7339      -1451.1298      1274.6464      2485.9812      13.177175    
  24235000   301.11657     -1470.2125      1280.3735      2502.8749      6.0089405    
  24240000   299.60598     -1468.7285      1295.8446      2506.3217      23.654558    
  24245000   305.73951     -1450.3889      1272.4602      2556.1255      0.46901143   
  24250000   295.8863      -1438.3825      1238.7062      2446.2663      12.007159    
  24255000   300.45393     -1434.8083      1236.2878      2488.2679     -0.69933836   
  24260000   304.58776     -1405.7483      1233.9173      2551.9239      1.8039394    
  24265000   301.2394      -1430.9444      1310.4497      2573.3176      13.944595    
  24270000   296.81208     -1408.4481      1270.0853      2515.8585     -3.5550105    
  24275000   305.68832     -1460.5383      1279.9199      2552.9781      12.691907    
  24280000   302.71267     -1443.1389      1249.2888      2513.1368      18.950844    
  24285000   302.87443     -1467.8664      1259.4946      2500.0617      17.215544    
  24290000   299.37012     -1478.3204      1301.3446      2500.1205     -0.57037184   
  24295000   304.8502      -1451.2172      1271.649       2546.5334     -1.0193207    
  24300000   301.54469     -1441.9016      1195.356       2449.9967     -5.9022033    
  24305000   294.27492     -1425.3703      1268.5776      2474.7402     -0.70561561   
  24310000   297.12489     -1440.4981      1241.2104      2457.7309      3.1369665    
  24315000   302.96295     -1433.9105      1263.7396      2539.0541     -3.0682451    
  24320000   292.95454     -1455.3724      1263.265       2427.6181      6.527531     
  24325000   312.49948     -1427.989       1250.0379      2616.5537      14.366823    
  24330000   296.71089     -1412.7889      1235.8172      2476.3446      6.0938866    
  24335000   296.88187     -1425.7519      1202.8964      2431.9899      20.415485    
  24340000   300.83902     -1452.8871      1288.977       2526.3218      5.9433536    
  24345000   292.37548     -1431.6797      1267.6297      2450.4973     -2.4752324    
  24350000   300.35737     -1425.719       1257.9525      2518.1583      9.4342133    
  24355000   304.04815     -1423.5051      1270.3156      2565.7399      8.0566721    
  24360000   301.64489     -1405.7415      1256.6585      2548.3554     -4.3200981    
  24365000   303.10031     -1406.7744      1274.7053      2578.3843      10.795302    
  24370000   294.45708     -1426.5666      1272.519       2479.1142     -2.1436205    
  24375000   303.39825     -1399.743       1248.9207      2562.2955      4.5623168    
  24380000   301.24958     -1384.2595      1265.6978      2575.3415      6.2213906    
  24385000   298.85555     -1396.6307      1272.1687      2548.0329      9.3458605    
  24390000   291.5606      -1414.2442      1273.6278      2466.6438     -2.1021179    
  24395000   297.59129     -1389.9071      1274.065       2545.3472      13.252882    
  24400000   299.5096      -1381.675       1252.4108      2549.0794      1.7279058    
  24405000   306.88435     -1374.2662      1251.9538      2621.9795     -9.8596172    
  24410000   304.12608     -1402.9798      1304.9928      2621.6392      0.041925147  
  24415000   293.53794     -1398.5447      1282.227       2508.6248      8.4460667    
  24420000   289.40022     -1392.5933      1252.6991      2448.0471      7.0792872    
  24425000   296.27487     -1411.7753      1278.1353      2515.7773     -0.43933696   
  24430000   298.56029     -1487.3596      1223.0349      2405.5299      18.1528      
  24435000   303.72077     -1476.0899      1244.0034      2483.9153     -0.56491355   
  24440000   305.85111     -1467.7118      1229.4418      2496.7822      5.8121754    
  24445000   294.39117     -1483.623       1278.6595      2427.609       0.32679365   
  24450000   290.04137     -1441.1813      1265.0309      2417.5243     -20.472535    
  24455000   291.70183     -1481.3155      1246.9535      2374.1612      12.51622     
  24460000   296.13602     -1469.1735      1271.014       2450.0162      22.345       
  24465000   293.00385     -1518.5025      1260.0994      2361.7633      11.223406    
  24470000   297.63584     -1512.9806      1234.7159      2383.323      -0.31331238   
  24475000   299.51465     -1511.0238      1266.2144      2433.5795      12.234895    
  24480000   297.25313     -1513.3511      1208.7802      2353.5945     -7.2429938    
  24485000   302.87994     -1521.762       1242.6246      2429.3453     -2.8604621    
  24490000   292.88989     -1501.7593      1258.1194      2375.5074     -10.666802    
  24495000   303.6721      -1498.2482      1259.7124      2477.0307      8.1418954    
  24500000   292.39446     -1476.9632      1217.5263      2355.28       -2.683095     
  24505000   296.82861     -1511.6515      1258.7747      2401.4923      12.379805    
  24510000   293.86062     -1477.7404      1256.7334      2406.821       4.1897723    
  24515000   304.86735     -1513.3392      1266.9331      2479.8489      34.008991    
  24520000   296.88484     -1457.0787      1227.876       2425.6692      11.845546    
  24525000   302.17094     -1450.4616      1247.4257      2499.1066      22.600251    
  24530000   299.50768     -1461.7583      1303.8161      2520.3844      8.9242653    
  24535000   305.89304     -1466.6552      1265.3051      2534.0771      21.937403    
  24540000   302.32483     -1478.7429      1274.7986      2499.5744     -2.431099     
  24545000   292.34516     -1465.5233      1290.1647      2438.9176     -4.1806085    
  24550000   305.33083     -1429.9746      1264.3061      2564.7311      9.9969782    
  24555000   297.06144     -1429.1393      1220.5188      2447.8306      23.38133     
  24560000   300.00063     -1452.8169      1278.4231      2508.3409      5.7279553    
  24565000   299.01458     -1460.9017      1255.4247      2468.44        3.7813783    
  24570000   296.95982     -1420.668       1246.8406      2481.715       12.885548    
  24575000   301.4906      -1425.5091      1293.3629      2563.9125     -11.479407    
  24580000   309.49915     -1414.3529      1252.9493      2606.271       6.0898292    
  24585000   298.18287     -1364.519       1250.2046      2552.1651     -6.0255758    
  24590000   300.93848     -1388.2614      1310.2251      2613.085       4.0011989    
  24595000   301.07778     -1425.2357      1253.3291      2520.4605      8.0203793    
  24600000   294.80525     -1443.6217      1294.1828      2486.8364     -9.1942503    
  24605000   302.18808     -1414.5194      1297.293       2585.0694      6.5068356    
  24610000   301.45414     -1439.7259      1237.6645      2493.6711      24.394187    
  24615000   307.27818     -1430.0779      1223.8006      2541.5364      7.9259558    
  24620000   296.18828     -1468.3759      1277.237       2457.5041     -6.4583166    
  24625000   309.05116     -1450.6432      1230.0179      2543.0431      7.2656574    
  24630000   304.87483     -1462.2319      1244.3352      2508.4252      0.31081608   
  24635000   305.42623     -1467.4199      1239.1574      2502.9901      13.790506    
  24640000   298.95011     -1432.3922      1282.7105      2523.6588      14.545677    
  24645000   298.09359     -1456.2451      1242.651       2452.087       15.418068    
  24650000   300.79197     -1463.4874      1280.7803      2507.104       3.3482829    
  24655000   296.99645     -1441.3223      1314.4217      2528.9694      9.9874179    
  24660000   291.78307     -1433.4463      1236.8247      2412.6281      11.303261    
  24665000   302.51872     -1438.9382      1312.7205      2579.0349      15.434152    
  24670000   300.77919     -1451.4323      1258.6068      2496.8714      0.42777679   
  24675000   304.52185     -1462.9969      1309.0194      2569.1878      3.8548952    
  24680000   304.21022     -1462.9982      1279.4588      2536.8392     -2.4019472    
  24685000   300.51576     -1484.7666      1255.6423      2458.217       2.1755579    
  24690000   302.73308     -1454.6991      1237.9469      2490.4172     -1.9235744    
  24695000   296.59013     -1483.15        1271.661       2440.7475     -17.171469    
  24700000   301.13522     -1469.2924      1193.1241      2416.7123      8.7890063    
  24705000   297.85158     -1477.7139      1277.5625      2463.3655      18.456727    
  24710000   299.57644     -1495.0414      1290.8559      2474.7558      12.183335    
  24715000   295.54552     -1545.3509      1277.7756      2375.3198      11.807383    
  24720000   303.67656     -1526.6431      1295.7462      2484.7096     -14.718449    
  24725000   301.74492     -1528.2965      1314.0869      2484.1234      4.9820954    
  24730000   300.04783     -1527.5584      1294.5019      2450.1003      12.993649    
  24735000   296.21752     -1489.1312      1301.1347      2460.908      -12.839634    
  24740000   299.12972     -1492.731       1288.0722      2470.2878      13.482925    
  24745000   297.19496     -1489.6115      1279.1643      2447.198       30.68895     
  24750000   300.69986     -1511.4839      1317.9236      2495.4271      15.533632    
  24755000   305.71745     -1527.6221      1259.4577      2465.6925      29.769313    
  24760000   293.69751     -1516.954       1234.1983      2343.6138      4.6167361    
  24765000   305.47388     -1510.1034      1317.0932      2538.6686      14.354166    
  24770000   300.16388     -1487.2793      1272.3331      2469.2483      6.4505629    
  24775000   294.42551     -1450.6533      1270.237       2452.4632      1.5836922    
  24780000   300.54628     -1461.6663      1285.6708      2511.6187      7.9983716    
  24785000   299.7808      -1503.0415      1181.9776      2359.7049      0.74795512   
  24790000   305.83121     -1489.7966      1254.8598      2499.9374     -2.8478631    
  24795000   293.42172     -1494.6908      1259.4688      2388.6813     -5.5888701    
  24800000   302.38738     -1468.6562      1261.277       2496.6989      6.810754     
  24805000   301.40397     -1501.4447      1258.3661      2452.2054      9.8601246    
  24810000   306.25864     -1512.3961      1325.6576      2551.958      -0.28050065   
  24815000   304.95692     -1554.8509      1285.4184      2457.6235      4.6320715    
  24820000   303.32828     -1535.3147      1238.8402      2416.0174      2.7642681    
  24825000   297.93231     -1514.5033      1289.246       2438.9815     -4.0190201    
  24830000   302.49375     -1527.8553      1229.2489      2406.4227      0.82330073   
  24835000   298.14784     -1493.6277      1246.4046      2418.9432      5.8561638    
  24840000   304.79098     -1475.9269      1253.8858      2503.531       4.01384      
  24845000   303.75007     -1463.6062      1296.3721      2549.0297     -3.4711264    
  24850000   304.56328     -1430.557       1232.3234      2525.3024      0.48151669   
  24855000   292.59697     -1416.2152      1275.4939      2475.8068     -2.35089      
  24860000   299.59711     -1449.3918      1272.9621      2502.6966      7.7938269    
  24865000   300.61092     -1462.6523      1264.9412      2490.4812     -4.8128123    
  24870000   290.99299     -1422.5264      1218.2805      2397.9386      4.9228348    
  24875000   297.13538     -1424.2996      1225.6933      2458.506       14.039981    
  24880000   302.47202     -1381.0661      1224.7498      2548.5186      8.9039537    
  24885000   294.91708     -1448.6957      1271.0281      2459.6078      8.6044098    
  24890000   295.23358     -1452.9222      1295.3802      2482.5638      26.720072    
  24895000   291.15075     -1476.5436      1280.5455      2407.5971     -1.4853005    
  24900000   299.53997     -1506.1105      1261.7279      2434.2327     -8.1549332    
  24905000   300.19291     -1509.1317      1274.2775      2449.5999     -3.0200838    
  24910000   299.43082     -1496.9732      1235.0989      2415.7649      4.975573     
  24915000   293.4153      -1481.1938      1274.8314      2417.4834     -0.17260965   
  24920000   301.40574     -1461.5301      1209.0389      2442.8085      13.357966    
  24925000   301.46449     -1454.2868      1263.6926      2505.2309      10.058813    
  24930000   305.17215     -1463.7064      1243.6401      2508.9144      5.6749054    
  24935000   308.59209     -1462.1141      1259.8897      2557.3388     -2.3709596    
  24940000   304.77967     -1440.033       1258.9014      2544.3394     -18.261139    
  24945000   300.53835     -1388.2635      1251.584       2550.8637     -4.082386     
  24950000   303.17391     -1442.5962      1222.3843      2490.8996     -9.8095428    
  24955000   303.44324     -1444.8618      1281.8265      2550.4846      12.376644    
  24960000   294.41643     -1488.0215      1280.0422      2424.8191      15.756698    
  24965000   296.87032     -1497.316       1280.4994      2437.9256     -3.0205685    
  24970000   305.46107     -1492.3509      1278.0812      2517.2946     -2.1493241    
  24975000   298.66415     -1495.8352      1276.7391      2451.6873     -12.655748    
  24980000   303.26601     -1468.5595      1228.7869      2472.1626      8.3213245    
  24985000   299.59134     -1481.3544      1259.026       2456.7463     -9.2203673    
  24990000   292.52358     -1486.9791      1241.7489      2370.6415      5.1920418    
  24995000   307.18102     -1507.149       1253.283       2493.0788      0.94746062   
  25000000   292.21757     -1498.4422      1275.4328      2390.1258      9.8406226    
  25005000   294.94507     -1482.7805      1301.7188      2456.464      -13.95265     
  25010000   294.47661     -1469.3811      1242.1699      2406.1254     -3.3573591    
Loop time of 11756.1 on 64 procs for 25000000 steps with 3001 atoms

Performance: 5512.033 ns/day, 0.004 hours/ns, 2126.556 timesteps/s
99.6% CPU use with 64 MPI tasks x 1 OpenMP threads

MPI task timing breakdown:
Section |  min time  |  avg time  |  max time  |%varavg| %total
---------------------------------------------------------------
Pair    | 57.959     | 194.5      | 1118.3     |2304.8 |  1.65
Bond    | 39.293     | 54.883     | 161.08     | 505.4 |  0.47
Neigh   | 2519.7     | 2589.3     | 2710.1     |  77.8 | 22.02
Comm    | 7470.1     | 8691.1     | 8924.1     | 453.4 | 73.93
Output  | 25.445     | 25.529     | 25.606     |   0.9 |  0.22
Modify  | 64.64      | 88.586     | 238.61     | 594.5 |  0.75
Other   |            | 112.2      |            |       |  0.95

Nlocal:        46.8906 ave         152 max          11 min
Histogram: 14 22 18 2 0 0 0 2 4 2
Nghost:        3457.86 ave        3676 max        3186 min
Histogram: 7 1 0 0 22 2 15 9 0 8
Neighs:        432.984 ave        2829 max          33 min
Histogram: 53 3 0 0 0 0 0 4 2 2
FullNghs:      865.969 ave        5714 max          64 min
Histogram: 53 3 0 0 0 0 2 2 2 2

Total # of neighbors = 55422
Ave neighs/atom = 18.467844
Ave special neighs/atom = 3.5988004
Neighbor list builds = 2500000
Dangerous builds = 2499990
Total wall time: 3:16:00
