LAMMPS (23 Jun 2022)
OMP_NUM_THREADS environment is not set. Defaulting to 1 thread. (src/src/comm.cpp:98)
  using 1 OpenMP thread(s) per MPI task
Created orthogonal box = (0 0 0) to (150 150 150)
  2 by 3 by 3 MPI processor grid
Read molecule template lig:
  1 molecules
  0 fragments
  5 atoms with max type 2
  4 bonds with max type 1
  3 angles with max type 1
  0 dihedrals with max type 0
  0 impropers with max type 0
Created 1 atoms
  using box units in orthogonal box = (0 0 0) to (150 150 150)
  create_atoms CPU = 0.003 seconds
Created 5500 atoms
  using lattice units in orthogonal box = (0 0 0) to (150 150 150)
  create_atoms CPU = 0.003 seconds
Finding 1-2 1-3 1-4 neighbors ...
  special bond factors lj:    0        1        1       
  special bond factors coul:  0        0        0       
     2 = max # of 1-2 neighbors
     2 = max # of 1-3 neighbors
     2 = max # of 1-4 neighbors
     7 = max # of special neighbors
  special bonds CPU = 0.001 seconds
5500 atoms in group ligands
Generated 0 of 6 mixed pair_coeff terms from geometric mixing rule
Neighbor list info ...
  update every 1 steps, delay 10 steps, check yes
  max neighbors/atom: 2000, page size: 100000
  master list distance cutoff = 60
  ghost atom cutoff = 60
  binsize = 30, bins = 5 5 5
  1 neighbor lists, perpetual/occasional/extra = 1 0 0
  (1) pair lj/expand, perpetual
      attributes: half, newton on
      pair build: half/bin/newton
      stencil: half/bin/3d
      bin: standard
Setting up Verlet run ...
  Unit style    : real
  Current step  : 0
  Time step     : 30
Per MPI rank memory allocation (min/avg/max) = 8.602 | 8.63 | 8.665 Mbytes
   Step          Temp          E_pair         E_mol          TotEng         Press     
         0   0              6.756873e+14   6.8680769e-25  6.756873e+14  -3.0040559e+15
      5000   136.75646     -15932.894      1412.1376     -12278.708     -22.107297    
     10000   137.55487     -17664.188      1431.768      -13977.283     -13.041813    
Loop time of 14.9214 on 18 procs for 10000 steps with 5501 atoms

Performance: 1737.097 ns/day, 0.014 hours/ns, 670.176 timesteps/s
99.6% CPU use with 18 MPI tasks x 1 OpenMP threads

MPI task timing breakdown:
Section |  min time  |  avg time  |  max time  |%varavg| %total
---------------------------------------------------------------
Pair    | 1.3202     | 2.2443     | 4.0645     |  46.8 | 15.04
Bond    | 0.13159    | 0.19955    | 0.30735    |   9.6 |  1.34
Neigh   | 7.0968     | 7.1087     | 7.1225     |   0.3 | 47.64
Comm    | 2.9582     | 5.0007     | 6.0186     |  34.9 | 33.51
Output  | 0.0024145  | 0.0024488  | 0.0024753  |   0.0 |  0.02
Modify  | 0.16768    | 0.23589    | 0.36458    |   9.8 |  1.58
Other   |            | 0.1299     |            |       |  0.87

Nlocal:        305.611 ave         569 max         149 min
Histogram: 2 4 2 2 4 1 1 0 1 1
Nghost:        8846.11 ave        9540 max        8231 min
Histogram: 1 3 2 1 2 2 3 2 0 2
Neighs:         9169.5 ave       19189 max        4444 min
Histogram: 5 1 3 4 2 1 0 0 0 2

Total # of neighbors = 165051
Ave neighs/atom = 30.003817
Ave special neighs/atom = 3.5993456
Neighbor list builds = 909
Dangerous builds = 1
1 atoms in group nps
1100 atoms in group amines
Generated 0 of 6 mixed pair_coeff terms from geometric mixing rule
Neighbor list info ...
  update every 1 steps, delay 10 steps, check yes
  max neighbors/atom: 2000, page size: 100000
  master list distance cutoff = 60
  ghost atom cutoff = 60
  binsize = 30, bins = 5 5 5
  3 neighbor lists, perpetual/occasional/extra = 1 2 0
  (1) pair lj/expand, perpetual
      attributes: half, newton on
      pair build: half/bin/newton
      stencil: half/bin/3d
      bin: standard
  (2) compute coord/atom, occasional
      attributes: full, newton on
      pair build: full/bin
      stencil: full/bin/3d
      bin: standard
  (3) compute coord/atom, occasional
      attributes: full, newton on
      pair build: full/bin
      stencil: full/bin/3d
      bin: standard
Setting up Verlet run ...
  Unit style    : real
  Current step  : 10000
  Time step     : 30
Per MPI rank memory allocation (min/avg/max) = 10.62 | 10.79 | 12.62 Mbytes
   Step          Temp          E_pair         E_mol          TotEng         Press     
     10000   137.55487     -17664.188      1431.768      -13977.283     -13.041813    
     15000   306.15934     -15687.938      2433.7846     -8234.8372      1.9977083    
     20000   297.41667     -16275.28       2464.6223     -8934.6737     -6.4224707    
     25000   305.78114     -16822.755      2433.6294     -9376.0103      12.629557    
     30000   301.66048     -17080.445      2424.7325     -9710.1533     -6.1028213    
     35000   300.39449     -17343.153      2372.8575     -10045.491      6.4250745    
     40000   298.28332     -17533.075      2407.8209     -10235.062     -0.0088036142 
     45000   297.99188     -17714.162      2445.8301     -10382.917     -23.942051    
     50000   305.54122     -17988.196      2387.1224     -10591.892      5.7123994    
     55000   299.07376     -18130.778      2382.1371     -10845.489     -13.134599    
     60000   294.22649     -18346.384      2437.5702     -11085.131     -15.14486     
     65000   298.92428     -18579.567      2384.4142     -11294.452      2.1426233    
     70000   298.00796     -18484.851      2415.8502     -11183.323     -13.113582    
     75000   302.76686     -18728.938      2403.1703     -11362.07       2.1459597    
     80000   300.79141     -18855.331      2440.1119     -11483.908     -17.626466    
     85000   297.9434      -18983.032      2391.7739     -11706.638     -2.669875     
     90000   294.59244     -19144.067      2409.6437     -11904.74      -22.875169    
     95000   295.29281     -19126.939      2406.4462     -11879.329     -16.963885    
    100000   303.43482     -19307.017      2415.3949     -11916.974     -14.630375    
    105000   303.69001     -19373.96       2311.2932     -12083.834     -10.172542    
    110000   305.23809     -19535.38       2391.0695     -12140.099      1.7527595    
    115000   292.42823     -19597.902      2344.1743     -12459.527     -21.048793    
    120000   307.14449     -19545.599      2391.9848     -12118.148     -0.7574486    
    125000   297.17406     -19649.786      2422.4178     -12355.362     -29.333397    
    130000   301.22883     -19716.696      2469.5829     -12308.631     -9.3313801    
    135000   300.89672     -19965.539      2419.1332     -12613.368     -6.174991     
    140000   299.67014     -19812.906      2445.1727     -12454.805     -26.172832    
    145000   300.15856     -19943.954      2419.621      -12603.397     -14.56452     
    150000   299.20501     -19941.311      2419.0502     -12616.958     -14.610905    
    155000   305.32803     -20061.085      2416.9425     -12638.456      17.681807    
    160000   302.59258     -20137.827      2453.3452     -12723.641     -11.428456    
    165000   302.91812     -20193.541      2452.3096     -12775.054     -17.108306    
    170000   300.1518      -20259.31       2401.2045     -12937.28      -3.3245248    
    175000   303.28921     -20350.554      2351.32       -13026.973     -17.127961    
    180000   300.71054     -20269.835      2410.2358     -12929.614     -18.68686     
    185000   298.59457     -20497.841      2427.3945     -13175.151     -12.097809    
    190000   298.44056     -20420.459      2377.2129     -13150.476      11.938777    
    195000   297.85966     -20552.013      2490.6661     -13178.1        4.6734748    
    200000   294.64953     -20602.651      2449.1792     -13322.853     -15.588007    
    205000   296.48366     -20645.018      2358.772      -13425.558     -35.085077    
    210000   303.10574     -20675.791      2395.2076     -13311.33      -1.8712567    
    215000   303.01822     -20860.748      2483.1083     -13409.821      4.4135527    
    220000   303.58006     -20926.48       2410.9052     -13538.545      6.9351689    
    225000   300.02827     -20764.493      2369.199      -13476.494     -3.0796974    
    230000   293.88773     -20901.901      2406.4552     -13677.317     -0.82698759   
    235000   296.53391     -20882.554      2342.3578     -13678.684     -3.257069     
    240000   300.13957     -21029.273      2431.4252     -13677.223     -5.357664     
    245000   301.48915     -20936.557      2353.1371     -13640.669      3.4417705    
    250000   297.44344     -20959.414      2420.3896     -13662.602      13.247014    
    255000   301.00323     -21018.447      2326.8734     -13756.79       6.3070737    
    260000   302.11942     -20850.463      2339.8156     -13557.564     -34.56387     
    265000   301.15706     -20902.286      2341.7387     -13623.242     -17.70236     
    270000   302.1405      -20884.12       2375.9219     -13554.769     -20.040689    
    275000   305.16793     -21036.594      2398.3637     -13635.169     -2.1316456    
    280000   301.9554      -20977.308      2336.8347     -13690.079     -3.7476556    
    285000   300.58453     -20951.262      2345.9208     -13677.422      7.3904153    
    290000   298.68125     -20978.925      2369.4682     -13712.74       2.6949121    
    295000   299.38079     -20977.661      2319.0904     -13750.385      16.531379    
    300000   297.12275     -21036.095      2313.3255     -13851.604     -3.7964095    
    305000   300.61156     -20998.699      2376.2791     -13694.057      3.3698495    
    310000   297.55851     -21008.881      2358.4405     -13772.131     -23.74837     
    315000   297.15382     -20962.064      2321.4332     -13768.956      6.4441963    
    320000   301.85691     -21004.212      2364.0273     -13691.405      12.950216    
    325000   300.26768     -21067.826      2375.6106     -13769.49      -9.856947     
    330000   299.70596     -20940.916      2352.7088     -13674.692     -12.759036    
    335000   297.65243     -20944.975      2375.2139     -13689.912      0.69773984   
    340000   301.82925     -20883.32       2422.415      -13512.579     -5.1275583    
    345000   302.818       -21018.983      2320.7202     -13733.727     -0.12255563   
    350000   297.20447     -20950.263      2392.8415     -13684.916     -7.527243     
    355000   300.64378     -20929.217      2324.0434     -13676.283      11.374991    
    360000   303.57505     -21007.795      2382.0369     -13648.811     -21.835256    
    365000   300.23215     -20993.565      2299.1827     -13772.24      -10.215832    
    370000   298.29396     -21083.142      2349.615      -13843.16       16.369604    
    375000   297.7535      -21016.825      2371.5604     -13763.758     -12.712736    
    380000   300.15111     -20898.222      2455.0474     -13522.36      -17.690378    
    385000   299.53781     -20996.178      2364.9856     -13720.433     -7.0581815    
    390000   303.09164     -20970.277      2413.3596     -13587.895      9.9821709    
    395000   306.06424     -20978.869      2357.9257     -13603.187     -21.09873     
    400000   295.71505     -21070.565      2391.8478     -13830.63      -3.1319002    
    405000   300.96539     -21070.125      2310.9214     -13825.04      -17.713866    
    410000   298.53878     -20941.842      2375.9686     -13671.493     -2.0618916    
    415000   293.47339     -21056.224      2366.3104     -13878.577     -19.007526    
    420000   295.85148     -21089.459      2335.6378     -13903.498      11.157511    
    425000   298.33696     -21090.894      2348.4333     -13851.389      4.8864729    
    430000   296.05728     -20969.4        2342.3887     -13773.313      19.755822    
    435000   300.80976     -21019.42       2368.6373     -13719.171     -11.912052    
    440000   304.88301     -21029.773      2359.745      -13671.638     -26.813876    
    445000   300.94458     -21020.971      2360.2888     -13726.86      -5.2859374    
    450000   297.90101     -21037.089      2393.3188     -13759.845      0.952524     
    455000   298.31052     -20968.849      2324.351      -13753.86      -31.035455    
    460000   302.30177     -21006.74       2421.8405     -13628.827      8.5546332    
    465000   293.77312     -20972.964      2360.7249     -13795.989      7.1270015    
    470000   299.32247     -20967.555      2412.8955     -13647.431     -32.551622    
    475000   302.00109     -21017.475      2394.5962     -13671.736     -28.59796     
    480000   304.16419     -21084.364      2406.3521     -13691.405     -13.163347    
    485000   296.99566     -21002          2397.9167     -13735.001      5.156225     
    490000   293.95487     -20923.848      2311.5365     -13793.081     -5.9761633    
    495000   301.80144     -20865.722      2303.949      -13613.903      8.9599449    
    500000   299.96951     -21005.667      2322.7018     -13765.129     -22.832959    
    505000   300.12278     -20991.92       2347.8355     -13723.735     -13.939844    
    510000   302.1099      -21006.072      2388.555      -13664.589      8.6790713    
    515000   296.12318     -20987.131      2391.4376     -13740.915     -1.6680342    
    520000   298.10952     -20944.204      2336.0402     -13720.821     -15.833344    
    525000   297.45224     -20957.688      2391.2043     -13689.917     -24.283526    
    530000   296.35946     -20946.212      2298.6048     -13788.955     -33.655168    
    535000   297.43178     -21046.204      2410.9125     -13759.06      -3.1384385    
    540000   304.42332     -21171.971      2394.2673     -13786.849      5.1754226    
    545000   302.819       -20966.795      2307.3143     -13694.928     -5.4431511    
    550000   299.9449      -20952.367      2367.3567     -13667.578     -8.0931555    
    555000   296.00918     -20962.137      2338.4319     -13770.795     -4.3853811    
    560000   296.94572     -21125.098      2429.5679     -13827.267     -22.787018    
    565000   298.85938     -21056.75       2354.3751     -13802.738     -8.792176     
    570000   300.53847     -20961.782      2322.9018     -13711.716      26.14198     
    575000   298.74728     -21105.678      2297.2801     -13910.599     -30.734045    
    580000   300.82207     -21091.513      2417.3164     -13742.383      22.485277    
    585000   295.77264     -20906.082      2321.1539     -13735.897      10.748439    
    590000   302.47813     -20991.418      2397.7753     -13634.678     -19.909909    
    595000   304.07983     -21081.966      2328.8018     -13767.941     -5.5564858    
    600000   295.98635     -21073.779      2308.6736     -13912.571      14.179804    
    605000   296.99931     -20969.664      2360.2345     -13740.288     -8.7614691    
    610000   297.6371      -20949.459      2408.9763     -13660.885      0.89529036   
    615000   298.88108     -20980.648      2379.7777     -13700.878     -36.750431    
    620000   299.71645     -21047.977      2395.0552     -13739.233     -5.2548846    
    625000   295.68904     -21025.637      2332.9242     -13845.052      0.05459112   
    630000   299.32477     -21017.312      2323.9316     -13786.114     -13.130439    
    635000   299.36279     -21189.702      2389.9459     -13891.866     -15.045781    
    640000   298.37996     -21121.708      2341.6083     -13888.323      21.667008    
    645000   298.965       -21017.965      2412.2701     -13704.327      15.631198    
    650000   295.78519     -21007.471      2336.3325     -13821.901     -11.357628    
    655000   304.53819     -21060.432      2345.3346     -13722.36      -7.9549406    
    660000   300.4922      -21081.89       2353.3266     -13802.157      7.9974723    
    665000   296.56864     -21068.33       2348.0327     -13858.216      4.42056      
    670000   293.74302     -21012.742      2397.3788     -13799.607      13.945015    
    675000   301.22002     -21158.845      2329.9166     -13890.59       8.745609     
    680000   298.17432     -21041.613      2390.1526     -13763.055      0.5995459    
    685000   295.39069     -21024.692      2379.6733     -13802.249      1.563986     
    690000   300.43003     -21082.715      2399.4356     -13757.893     -22.349309    
    695000   298.11596     -20979.605      2370.2384     -13721.918      3.6515105    
    700000   301.31733     -21122.925      2371.2813     -13811.71      -16.864349    
    705000   296.48203     -21142.956      2411.4642     -13870.83      -16.099923    
    710000   290.77383     -21194.448      2343.9409     -14083.428     -9.1137589    
    715000   300.406       -21005.239      2376.961      -13703.286     -15.6363      
    720000   294.93027     -21037.462      2427.1503     -13775.091     -5.4509373    
    725000   300.83492     -21075.625      2399.9319     -13743.668      10.93599     
    730000   299.6644      -21038.22       2399.8689     -13725.516     -25.320457    
    735000   304.51072     -21072.811      2357.8669     -13722.657     -3.4128242    
    740000   300.96042     -21012.631      2386.6561     -13691.893     -17.733408    
    745000   309.64856     -21009.736      2325.0177     -13608.199      2.5305118    
    750000   302.32742     -21099.911      2411.3521     -13732.066     -5.2275109    
    755000   298.46738     -20958.816      2395.0285     -13670.577     -2.7353091    
    760000   296.47178     -20962.505      2356.6478     -13745.364     -7.4125156    
    765000   296.20201     -21040.22       2356.5326     -13827.617     -15.402828    
    770000   297.00714     -20929.518      2347.0552     -13713.192     -3.3379628    
    775000   295.76985     -21017.062      2371.0685     -13797.008     -16.858681    
    780000   300.67734     -20961.249      2414.614      -13617.194     -1.3967831    
    785000   300.11489     -20995.16       2361.3375     -13713.603      10.634107    
    790000   298.72119     -20986.292      2395.8489     -13693.072      14.822332    
    795000   302.99444     -21079.3        2400.381      -13711.491     -8.207998     
    800000   304.75177     -20925.589      2320.496      -13608.853     -33.152725    
    805000   299.52513     -21176.727      2364.9389     -13901.237     -20.629672    
    810000   303.82135     -21089.504      2300.439      -13808.08      -16.250124    
    815000   300.9852      -21024.225      2338.4955     -13751.241      15.373113    
    820000   305.00292     -21021.464      2412.666      -13608.441     -20.285541    
    825000   300.04026     -21086.392      2433.7087     -13733.687      26.360319    
    830000   296.93265     -21152.802      2383.2757     -13901.478     -9.6391079    
    835000   300.44272     -21102.792      2359.171      -13818.027      3.8016406    
    840000   298.46956     -21035.61       2385.9198     -13756.445      15.923212    
    845000   295.54145     -21107.662      2363.7706     -13898.65       2.7600935    
    850000   301.4586      -21152.701      2302.0101     -13908.441     -17.453786    
    855000   295.24514     -20996.916      2358.4454     -13798.088     -1.1757488    
    860000   300.60948     -21100.99       2351.3298     -13821.332     -17.945971    
    865000   299.57603     -21170.149      2310.2737     -13948.489     -26.257139    
    870000   304.12298     -21036.191      2385.1498     -13665.111     -0.35527198   
    875000   304.02317     -21092.373      2357.1946     -13750.884     -46.25191     
    880000   298.24326     -20852.868      2350.0999     -13613.232     -0.67749339   
    885000   294.4605      -20988.192      2280.7552     -13879.917     -3.1820433    
    890000   296.57703     -21063.985      2402.3308     -13799.435      13.324226    
    895000   298.23554     -21047.084      2315.8766     -13841.798      14.030367    
    900000   298.98451     -21148.047      2290.3663     -13955.993     -14.288208    
    905000   297.12035     -21168.791      2349.0019     -13948.662      15.353574    
    910000   299.30998     -21069.559      2373.7926     -13788.742      19.406277    
    915000   298.90471     -21016.27       2309.2513     -13806.639     -4.294807     
    920000   296.76046     -21080.735      2416.0381     -13799.471      11.489898    
    925000   298.8071      -20950.73       2374.8229     -13677.127      5.2750965    
    930000   296.64428     -21156.811      2397.1152     -13896.374      9.2080792    
    935000   300.10752     -21006.646      2311.6421     -13774.905     -13.075943    
    940000   299.5195      -21136.021      2359.0125     -13866.549      0.14394834   
    945000   298.13602     -21052.264      2366.2382     -13798.248      2.3477763    
    950000   303.6532      -20991.587      2432.144      -13581.214     -37.124432    
    955000   297.33318     -21120.565      2379.47       -13866.48      -26.271004    
    960000   296.83829     -21096.151      2359.8313     -13869.818     -19.66175     
    965000   300.52419     -21037.619      2390.8355     -13719.853      7.1008421    
    970000   306.55293     -20957.358      2391.5846     -13540.005      5.008855     
    975000   298.78005     -20992.402      2312.3513     -13781.715     -32.941792    
    980000   298.25753     -20917.478      2327.3534     -13700.355     -4.9378548    
    985000   299.88737     -21074.673      2412.0041     -13746.179     -36.519291    
    990000   299.99453     -21017.73       2359.4462     -13740.037     -20.404488    
    995000   297.49637     -21146.719      2397.8678     -13871.561     -13.360396    
   1000000   300.60821     -21007.962      2328.1753     -13751.479      17.718494    
   1005000   296.45255     -21026.434      2394.9122     -13771.344      3.5105628    
   1010000   303.62203     -21034.783      2377.1821     -13679.883      8.3568105    
   1015000   299.87173     -20957.873      2362.57       -13679.069     -1.2209361    
   1020000   297.38863     -21082.846      2291.5789     -13915.743      13.395449    
   1025000   304.9891      -21135.373      2331.8924     -13803.351     -6.8603717    
   1030000   298.5086      -21118.642      2301.0189     -13923.737      5.0524398    
   1035000   297.90148     -21022.44       2385.906      -13752.601      1.7527014    
   1040000   299.99528     -21016.73       2357.2584     -13741.212     -21.178537    
   1045000   301.10796     -21019.249      2403.3451     -13679.403     -7.2305305    
   1050000   302.94304     -21135.499      2372.8327     -13796.08       11.48483     
   1055000   294.46726     -21024.538      2419.5502     -13777.357     -19.410563    
   1060000   298.24306     -21049.974      2368.7445     -13791.697      1.6064173    
   1065000   298.35215     -21088.458      2467.0205     -13730.116     -4.8394417    
   1070000   297.53286     -21060.656      2350.7023     -13832.065     -7.4994046    
   1075000   300.43657     -20987.25       2359.8342     -13701.922     -16.990179    
   1080000   301.66637     -21097.691      2344.9367     -13807.099      6.6462345    
   1085000   299.26066     -20939.847      2421.3498     -13612.282      3.153911     
   1090000   297.22499     -20988.862      2452.6693     -13663.351     -20.934417    
   1095000   300.83171     -21088.82       2393.5916     -13763.256      3.2708667    
   1100000   296.17455     -21031.408      2319.2919     -13856.496     -7.3140578    
   1105000   302.88358     -21063.25       2390.5044     -13707.134      3.3077278    
   1110000   295.80962     -20975.948      2405.4617     -13720.849     -23.304003    
   1115000   300.6091      -20884.956      2372.2281     -13584.406      1.5772781    
   1120000   296.74589     -21084.123      2442.9634     -13776.172     -9.3119815    
   1125000   296.32452     -20943.081      2418.4715     -13666.531      13.728482    
   1130000   298.68908     -20954.356      2319.0281     -13738.483     -12.786137    
   1135000   295.49638     -21021.095      2405.2093     -13771.384      21.449578    
   1140000   297.7807      -21121.665      2372.3437     -13867.368     -4.562122     
   1145000   303.85163     -21083.624      2383.7252     -13718.417     -18.396375    
   1150000   299.32507     -21106.715      2375.6828     -13823.761     -12.031909    
   1155000   297.49439     -21042.013      2330.9953     -13833.759      7.7264706    
   1160000   300.44727     -20998.956      2354.2529     -13719.034     -5.3538307    
   1165000   302.9751      -21056.543      2377.061      -13712.37      -20.597022    
   1170000   299.38134     -20923.818      2304.481      -13711.143      8.7180664    
   1175000   299.65906     -21059.985      2347.6335     -13799.604      12.96564     
   1180000   294.45129     -21085.919      2315.8192     -13942.731      5.1622621    
   1185000   307.52844     -21122.399      2416.8523     -13663.785      13.986529    
   1190000   299.96891     -21162.732      2375.1828     -13869.722     -2.3632149    
   1195000   296.6933      -20921.808      2357.0241     -13700.659     -9.1502123    
   1200000   302.85956     -21062.679      2389.0303     -13708.431      4.6447176    
   1205000   307.4997      -21143.571      2366.6937     -13735.587      21.510529    
   1210000   302.55779     -21015.438      2347.0655     -13708.103     -21.618031    
   1215000   303.256       -21087.662      2373.3595     -13742.585      0.1343244    
   1220000   296.28595     -21049.82       2393.005      -13799.368     -20.710776    
   1225000   299.10677     -21042.837      2425.3889     -13713.756      15.132667    
   1230000   303.72437     -20953.48       2290.1478     -13683.936      16.731504    
   1235000   303.00922     -20967.962      2387.3808     -13612.91      -5.2748646    
   1240000   300.77658     -21125.026      2380.7843     -13813.173      7.8222615    
   1245000   297.96574     -21118.466      2349.122      -13884.358      3.2199648    
   1250000   299.10475     -21017.023      2360.7873     -13752.576     -21.582906    
   1255000   296.67436     -21093.8        2378.7835     -13851.202     -10.50262     
   1260000   301.87775     -20967.416      2381.9245     -13636.371     -19.258779    
   1265000   296.64394     -21069.497      2342.5921     -13863.589     -19.671062    
   1270000   294.87675     -20950.643      2277.9929     -13838.307     -14.711188    
   1275000   303.62154     -20990.373      2359.833      -13652.831      6.3987867    
   1280000   298.22478     -21070.649      2439.8314     -13741.585      10.38213     
   1285000   301.68501     -21064.113      2330.8961     -13787.255     -19.708329    
   1290000   299.86606     -21053.357      2352.8819     -13784.334      13.296723    
   1295000   299.61745     -21056.58       2345.4529     -13799.062     -9.5099982    
   1300000   296.30749     -20969.013      2404.7518     -13706.461     -28.095881    
   1305000   303.07929     -20986.389      2353.469      -13664.1       -14.67263     
   1310000   300.12033     -21059.488      2301.2023     -13837.977     -2.8983333    
   1315000   303.33084     -21119.292      2331.6413     -13814.707     -20.911955    
   1320000   298.41139     -21068.094      2328.2034     -13847.599     -14.276749    
   1325000   303.56263     -20964.498      2436.0194     -13551.734     -1.4735401    
   1330000   304.03173     -21056.914      2239.662      -13832.818     -9.912604     
   1335000   301.07534     -21028.506      2366.1904     -13726.349      9.9904896    
   1340000   301.77978     -20921.266      2452.9797     -13520.772     -42.885091    
   1345000   293.7765      -20991.751      2358.5673     -13816.878      0.99959775   
   1350000   307.68733     -20966.863      2375.4393     -13547.057     -10.656038    
   1355000   295.27089     -21078.841      2359.9119     -13878.124      25.51655     
   1360000   303.24391     -21035.463      2339.9184     -13724.026     -11.470045    
   1365000   294.14308     -21035.905      2355.1207     -13858.469      6.9895053    
   1370000   305.79597     -21046.88       2341.2421     -13692.279      5.3433881    
   1375000   295.05742     -21022.957      2409.5445     -13776.107     -26.598475    
   1380000   307.26873     -20998.129      2340.7141     -13619.912      14.728981    
   1385000   295.08127     -21154.487      2401.283      -13915.507     -28.231138    
   1390000   299.70962     -21111.616      2409.7102     -13788.33       9.5251681    
   1395000   300.69144     -20911.091      2405.9793     -13575.44      -14.07383     
   1400000   303.60123     -21033.324      2340.6329     -13715.314      21.44311     
   1405000   302.45748     -20959.935      2393.7042     -13607.605      35.426538    
   1410000   296.23884     -21060.017      2390.819      -13812.523     -6.7213496    
   1415000   300.27147     -21102.349      2364.1638     -13815.398     -36.592831    
   1420000   301.31966     -21087.941      2391.1309     -13756.838     -4.1746336    
   1425000   297.17547     -21104.187      2375.1705     -13856.987      19.787884    
   1430000   301.02508     -21099.641      2317.4993     -13847         -25.52394     
   1435000   298.69196     -21003.9        2417.0813     -13689.927      1.8839863    
   1440000   294.93748     -21042.06       2340.3049     -13866.416      11.156976    
   1445000   295.77868     -21083.753      2374.6429     -13859.98       1.5041998    
   1450000   302.50869     -21045.975      2407.8258     -13678.684      16.465004    
   1455000   305.55044     -21018.758      2396.5308     -13612.894     -7.4658427    
   1460000   302.36079     -21143.453      2304.8879     -13881.525     -18.858956    
   1465000   295.09369     -21069.931      2410.7361     -13821.294      11.367548    
   1470000   297.40778     -21017.333      2384.1809     -13757.313     -14.921678    
   1475000   296.47923     -21104.777      2327.1742     -13916.988     -12.148806    
   1480000   302.82734     -21125.366      2388.5447     -13772.132     -9.018918     
   1485000   304.18918     -20957.385      2352.4023     -13617.967     -17.531148    
   1490000   301.06703     -20906.925      2452.5152     -13518.58      -4.0280749    
   1495000   299.28401     -21093.348      2374.1942     -13812.556      6.8686025    
   1500000   296.5205      -21070.079      2358.8224     -13849.965     -4.49904      
   1505000   299.6583      -21016.322      2403.044      -13700.543      7.270284     
   1510000   301.647       -21111.01       2391.5127     -13774.159     -27.071166    
   1515000   297.35917     -21054.152      2374.1886     -13804.922      16.154745    
   1520000   298.88906     -20975.785      2343.4734     -13732.188     -53.331614    
   1525000   292.88253     -20991.49       2433.2675     -13756.573     -20.570446    
   1530000   293.92422     -21110.451      2370.7409     -13920.982     -13.434877    
   1535000   298.87662     -21121.371      2372.9432     -13848.508     -46.082771    
   1540000   305.98878     -21028.193      2387.1265     -13624.547     -15.014886    
   1545000   298.37178     -21005.938      2292.7205     -13821.575     -15.949593    
   1550000   301.88041     -21038.812      2382.4802     -13707.167     -44.021941    
   1555000   301.57149     -21087.393      2355.1852     -13788.108     -1.6760024    
   1560000   301.05323     -21092.138      2361.3032     -13795.231      8.6098993    
   1565000   294.59917     -20990.76       2351.8306     -13809.136     -20.01709     
   1570000   300.45079     -20963.609      2355.824      -13682.058     -3.9870121    
   1575000   302.33614     -20954.613      2316.3486     -13681.628     -7.3007877    
   1580000   299.69624     -21190.671      2395.5316     -13881.782     -13.220717    
   1585000   303.77052     -21096.635      2396.7109     -13719.772      22.78009     
   1590000   302.92866     -21083.107      2370.0124     -13746.744     -0.11856174   
   1595000   302.96413     -21099.756      2369.7904     -13763.034      2.5113761    
   1600000   296.39478     -21006.888      2439.0816     -13708.575     -3.9400731    
   1605000   300.75294     -21101.637      2338.1586     -13832.798      10.616651    
   1610000   297.28218     -20861.235      2436.0884     -13551.367     -25.005       
   1615000   300.67514     -20788.976      2346.1066     -13513.464     -27.183639    
   1620000   300.72031     -20840.335      2370.1507     -13540.039      10.751272    
   1625000   301.47139     -21007.399      2399.3663     -13665.573      21.027082    
   1630000   305.8893      -20931.726      2324.406      -13592.432     -41.910956    
   1635000   300.89146     -21088.175      2411.6634     -13743.56      -10.268905    
   1640000   302.17636     -21159.36       2339.826      -13865.517      1.2423706    
   1645000   299.25623     -21201.646      2393.0529     -13902.45      -6.4265988    
   1650000   297.18247     -20886.782      2382.7477     -13631.889      3.3376212    
   1655000   299.86598     -20983.21       2406.0708     -13661          1.5718636    
   1660000   297.28098     -21067.913      2340.6268     -13853.526     -23.838682    
   1665000   303.01247     -21034.646      2361.8661     -13705.056     -39.575975    
   1670000   300.39573     -21050.079      2397.8107     -13727.444      5.6342103    
   1675000   300.89656     -20943.763      2414.5488     -13596.179     -1.3759447    
   1680000   297.27206     -21054.146      2467.1876     -13713.345      4.3495492    
   1685000   301.01009     -21043.443      2368.9763     -13739.571     -11.882589    
   1690000   303.07735     -21055.684      2381.0332     -13705.862     -8.6905221    
   1695000   301.00305     -21026.687      2368.4554     -13723.45      -22.646252    
   1700000   297.28034     -20989.511      2376.7789     -13738.983      1.4906223    
   1705000   293.45711     -21052.559      2370.1164     -13871.373     -28.818155    
   1710000   306.64261     -21090.405      2415.1569     -13648.009      1.4646546    
   1715000   306.29577     -21081.593      2349.1188     -13710.921     -10.856498    
   1720000   296.29631     -21067.538      2343.0852     -13866.836     -22.004432    
   1725000   302.57225     -20985.501      2374.6292     -13650.365     -11.108747    
   1730000   301.79525     -21060.098      2382.1789     -13730.15      -14.819583    
   1735000   302.71595     -21047.039      2402.9315     -13681.244     -14.986054    
   1740000   293.86665     -21030.071      2390.4922     -13821.795      21.902768    
   1745000   306.49558     -21051.537      2360.7048     -13666.004      11.468315    
   1750000   302.51244     -21004.024      2327.9275     -13716.57      -1.9723379    
   1755000   300.48815     -21037.414      2412.9037     -13698.171      21.465       
   1760000   300.04695     -21096.336      2419.7785     -13757.451     -1.1979524    
   1765000   297.52926     -21181.384      2378.3306     -13925.223     -3.3526708    
   1770000   306.67335     -21013.479      2395.3907     -13590.346     -10.324813    
   1775000   298.87574     -21009.69       2372.5426     -13737.242     -32.764029    
   1780000   300.21492     -20974.016      2373.8232     -13678.333     -1.3522834    
   1785000   301.8888      -21010.169      2287.3554     -13773.511     -5.8609035    
   1790000   298.41836     -21003.658      2392.9578     -13718.293     -0.81440317   
   1795000   301.48786     -21000.17       2397.8211     -13659.62      -28.740629    
   1800000   303.48731     -21008.769      2398.9616     -13634.299     -0.069404462  
   1805000   301.10382     -21107.257      2403.1319     -13767.692     -15.359585    
   1810000   298.48417     -21168.302      2354.9255     -13919.891     -17.671489    
   1815000   301.25366     -21027.65       2376.8096     -13711.951     -30.555686    
   1820000   298.03089     -21150.237      2409.5395     -13854.643     -15.65284     
   1825000   302.87957     -20945.615      2475.138      -13504.932     -27.560897    
   1830000   303.64856     -20970.747      2387.1116     -13605.483      11.701421    
   1835000   296.64617     -20944.852      2272.6241     -13808.876     -0.61889466   
   1840000   298.30438     -21107.031      2312.1344     -13904.359     -35.531357    
   1845000   301.80807     -21053.724      2383.3787     -13722.366     -9.9141135    
   1850000   298.11223     -20940.47       2378.2026     -13674.88      -7.6589183    
   1855000   298.7956      -21096.713      2375.3764     -13822.745     -15.934433    
   1860000   298.12941     -20999.749      2347.3546     -13764.726     -19.519305    
   1865000   297.52947     -21117.375      2391.723      -13847.818     -15.174279    
   1870000   302.04443     -21067.324      2415.2815     -13700.189      20.546282    
   1875000   303.38724     -21138.244      2367.4327     -13796.943     -12.17934     
   1880000   298.69676     -21045.931      2378.7027     -13770.258      0.75969414   
   1885000   293.13534     -21081.77       2330.261      -13945.714     -23.361794    
   1890000   299.66304     -20918.872      2366.2888     -13639.771     -10.596326    
   1895000   297.35482     -21121.243      2356.1467     -13890.126     -1.8705928    
   1900000   301.31772     -21011.157      2373.5656     -13697.651     -29.000329    
   1905000   299.28237     -20979.508      2356.7636     -13716.173     -21.159093    
   1910000   297.97117     -21160.07       2424.6184     -13850.376      14.304127    
   1915000   301.79437     -21050.893      2318.6212     -13784.518     -33.557161    
   1920000   300.54031     -21081.549      2378.1727     -13776.181     -20.163228    
   1925000   299.23119     -21019.176      2371.7205     -13741.723      27.464751    
   1930000   302.22399     -21101.619      2369.0815     -13777.74      -12.758261    
   1935000   305.93582     -21020.838      2351.7734     -13653.413      14.183154    
   1940000   288.53915     -20961.084      2393.127      -13837.515     -5.3852953    
   1945000   300.62067     -21045.434      2428.2152     -13688.707     -6.2792626    
   1950000   302.89805     -20977.4        2266.8179     -13744.734      9.2614263    
   1955000   298.53682     -21060.91       2352.5471     -13814.015     -10.130446    
   1960000   303.76259     -21034.659      2355.006      -13699.631     -15.914438    
   1965000   301.88803     -20965.634      2288.0323     -13728.311      11.240267    
   1970000   303.45433     -21134.794      2297.33       -13862.496     -31.449215    
   1975000   293.55374     -21108.057      2358.8431     -13936.56      -0.021806399  
   1980000   297.41336     -20981.766      2373.5423     -13732.294      16.587315    
   1985000   301.90691     -21040.198      2365.8573     -13724.741      8.5860983    
   1990000   299.20784     -21070.657      2355.5644     -13809.743      4.3215236    
   1995000   305.45322     -21057.947      2352.0783     -13698.129      11.043917    
   2000000   303.28001     -21055.901      2396.9496     -13686.841     -5.5262655    
   2005000   298.40975     -21045.742      2351.196      -13802.281      1.631829     
   2010000   302.21299     -21035.155      2331.987      -13748.55      -6.1763395    
   2015000   296.62471     -20925.1        2368.6843     -13693.415     -16.388727    
   2020000   299.81101     -21037.309      2401.9415     -13720.129     -19.869113    
   2025000   294.10875     -20997.188      2310.5847     -13864.851      1.1326296    
   2030000   300.91336     -21047.457      2381.0285     -13733.118      3.2753532    
   2035000   298.83988     -21146.046      2372.1739     -13874.555     -3.3965509    
   2040000   303.36987     -21187.511      2361.8238     -13852.103     -4.1982611    
   2045000   300.15312     -21046.66       2360.3578     -13765.456      9.5097824    
   2050000   297.2887      -21100.897      2432.6185     -13794.392     -14.019988    
   2055000   305.33446     -21192.045      2352.6526     -13833.6        10.704043    
   2060000   306.84145     -20966.368      2428.2165     -13507.653      14.335463    
   2065000   306.42979     -21086.841      2418.5433     -13644.548     -16.860449    
   2070000   303.1108      -20992.038      2392.399      -13630.302     -15.079532    
   2075000   296.24112     -20970.851      2363.1867     -13750.952     -26.263952    
   2080000   306.25341     -20958.915      2363.9476     -13574.109     -3.9630272    
   2085000   301.58249     -21049.326      2363.4068     -13741.638     -30.397015    
   2090000   300.27409     -21054.136      2405.2332     -13726.072     -45.879121    
   2095000   298.65002     -21015.024      2366.4707     -13752.349      0.21541345   
   2100000   294.71506     -20996.302      2443.2697     -13721.34       4.7865287    
   2105000   301.40603     -21030.169      2363.1325     -13725.649     -8.8725106    
   2110000   294.24165     -21044.584      2390.5155     -13830.137     -30.4896      
   2115000   300.16903     -20975.589      2424.3451     -13630.136     -9.0814211    
   2120000   299.28679     -21012.109      2332.7861     -13772.679     -4.9312531    
   2125000   297.26739     -20999.348      2415.7448     -13710.066      15.588036    
   2130000   306.22991     -20913.829      2325.7706     -13567.586      18.501117    
   2135000   303.70299     -21061.441      2428.887      -13653.508     -20.320406    
   2140000   299.71152     -20940.365      2335.1454     -13691.612     -33.50743     
   2145000   295.95125     -20998.932      2378.252      -13768.72      -3.2885585    
   2150000   296.48884     -21002.523      2354.7416     -13787.009     -22.454632    
   2155000   297.23601     -21019.699      2387.5228     -13759.154     -6.1404788    
   2160000   300.29518     -21100.135      2353.3579     -13823.602     -31.694865    
   2165000   301.58013     -21079.594      2329.5662     -13805.786     -38.534326    
   2170000   296.42462     -20929.024      2360.8698     -13708.434     -28.831683    
   2175000   298.0276      -21090.118      2343.4024     -13860.715     -8.6004567    
   2180000   303.49365     -21038.804      2348.5395     -13714.651      6.9807529    
   2185000   295.72653     -20964.341      2354.6763     -13761.389     -23.053183    
   2190000   297.7374      -21035.199      2409.432      -13744.524     -18.249629    
   2195000   302.71585     -20911.394      2351.0015     -13597.531     -11.098649    
   2200000   302.59327     -21068.749      2342.369      -13765.528      1.8033344    
   2205000   300.19772     -20969.332      2382.0675     -13665.686     -4.6737095    
   2210000   304.5809      -21144.883      2318.6577     -13832.787     -0.36045699   
   2215000   304.35273     -21122.956      2431.6275     -13701.631      11.434047    
   2220000   304.74471     -21136.378      2393.5315     -13746.723     -30.163878    
   2225000   298.2607      -21076.138      2366.6139     -13819.703     -2.1106565    
   2230000   298.8673      -21091.096      2369.6476     -13821.681     -14.10569     
   2235000   296.88913     -20932.167      2330.7344     -13734.097     -12.031283    
   2240000   299.1823      -21037.266      2356.4087     -13775.927     -6.1178531    
   2245000   301.58487     -21105.728      2363.23       -13798.178      24.175102    
   2250000   294.99804     -20977.966      2329.1852     -13812.449     -22.055585    
   2255000   302.38032     -21031.43       2331.1432     -13742.926      17.830969    
   2260000   310.14237     -21076.213      2439.9239     -13551.674     -2.7994231    
   2265000   303.94275     -21120.452      2469.3231     -13668.153      0.72712205   
   2270000   300.62788     -20954.022      2344.3418     -13681.05       22.67831     
   2275000   304.17452     -21139.918      2404.8773     -13748.265     -11.079328    
   2280000   305.28603     -21055.818      2377.4521     -13673.368      3.0244239    
   2285000   300.85988     -21131.211      2394.9035     -13803.874      29.40643     
   2290000   300.59864     -20998.06       2351.9881     -13717.921     -16.624788    
   2295000   304.18303     -21042.495      2360.3303     -13695.249     -12.77354     
   2300000   298.91083     -20906.733      2375.274      -13630.979     -25.743501    
   2305000   302.17141     -21155.106      2388.9644     -13812.206     -5.2650015    
   2310000   301.78986     -21052.43       2356.6142     -13748.136     -21.180826    
   2315000   304.5958      -21128.065      2338.259      -13796.124      14.174146    
   2320000   296.81039     -21061.787      2414.6484     -13781.094     -26.035271    
   2325000   298.86386     -20949.739      2379.5913     -13670.437     -21.07105     
   2330000   298.77157     -21113.485      2424.9698     -13790.318     -26.369589    
   2335000   297.78521     -21006.643      2355.8622     -13768.755     -1.9525229    
   2340000   300.04116     -21037.13       2432.191      -13685.927      6.5816605    
   2345000   298.27776     -21146.326      2336.9455     -13919.279      2.5379357    
   2350000   302.10182     -21001.549      2451.128      -13597.626     -36.393356    
   2355000   293.60009     -20956.082      2391.9331     -13750.736     -33.725386    
   2360000   299.1406      -21016.519      2336.2488     -13776.023     -20.320001    
   2365000   305.135       -21099.608      2327.7574     -13769.328     -5.1152355    
   2370000   300.47691     -20982.218      2306.5141     -13749.548     -9.3777059    
   2375000   295.96878     -21039.911      2384.6789     -13802.985      10.385249    
   2380000   301.73127     -21021.164      2327.6285     -13746.816      12.567221    
   2385000   299.35301     -21092.244      2429.3554     -13755.159     -6.9072512    
   2390000   304.72918     -21092.273      2352.8206     -13743.584     -16.235052    
   2395000   298.62645     -21036.85       2309.3847     -13831.647      2.0603021    
   2400000   294.12603     -21105.654      2345.6624     -13937.955     -23.890293    
   2405000   298.45652     -21051.616      2349.396      -13809.188     -3.1695062    
   2410000   293.70699     -20994.43       2369.9024     -13809.361     -8.0839187    
   2415000   301.35415     -20979.29       2331.8971     -13706.856     -3.176284     
   2420000   305.41314     -20989.433      2372.6024     -13609.749     -16.728046    
   2425000   303.07098     -21001.649      2344.3531     -13688.612     -2.0293026    
   2430000   300.04826     -21123.124      2404.2493     -13799.747      1.0712527    
   2435000   300.09135     -20976.298      2292.9205     -13763.543      16.494517    
   2440000   304.53878     -21049.407      2389.9494     -13666.71       13.620042    
   2445000   300.55158     -21062.771      2416.1163     -13719.275     -15.07504     
   2450000   306.1943      -21135.359      2330.535      -13784.935     -10.782558    
   2455000   303.78382     -21094.565      2404.7197     -13709.475      26.200978    
   2460000   293.45624     -21055.595      2327.3269     -13917.212      3.7885146    
   2465000   297.5831      -21078.289      2367.8322     -13831.744     -15.277998    
   2470000   304.74117     -21160.091      2390.9129     -13773.112     -25.645702    
   2475000   306.92991     -20990.944      2393.3861     -13565.609      24.401913    
   2480000   305.97067     -21070.056      2378.3515     -13675.482      22.677942    
   2485000   297.88334     -21045.232      2391.97       -13769.627     -3.9189422    
   2490000   297.77602     -21070.389      2489.5466     -13698.967     -3.0197948    
   2495000   295.53028     -21053.744      2387.1576     -13821.528     -1.9265673    
   2500000   298.53303     -20964.856      2269.5337     -13801.035     -28.75419     
   2505000   301.85704     -21020.177      2457.9875     -13613.408      10.743523    
   2510000   296.84905     -20881.465      2364.6328     -13650.154     -0.84402996   
   2515000   296.65281     -20974.752      2368.0166     -13743.275     -12.7104      
   2520000   294.79316     -21163.451      2320.5837     -14009.894     -24.445193    
   2525000   301.76213     -21029.416      2349.9845     -13732.206     -20.58553     
   2530000   297.68695     -20994.226      2351.6133     -13762.197     -4.6740273    
   2535000   303.14531     -21053.206      2401.7355     -13681.569     -7.1435821    
   2540000   299.26139     -21034.29       2400.5127     -13727.55      -2.9011756    
   2545000   301.39265     -21004.957      2363.393      -13700.396      25.828617    
   2550000   298.78154     -21040.154      2357.2571     -13784.536     -25.073991    
   2555000   299.37059     -21014.939      2349.4606     -13757.46      -12.250548    
   2560000   297.39741     -21079.724      2391.6243     -13812.432      3.8311451    
   2565000   293.63299     -20972.825      2363.6469     -13795.225     -4.0729141    
   2570000   300.46196     -21132.474      2385.0383     -13821.526     -7.8651098    
   2575000   299.8306      -21059.13       2368.4185     -13775.152      21.874595    
   2580000   296.57731     -21045.304      2333.6873     -13849.394      7.2329072    
   2585000   295.48748     -21093.424      2409.4761     -13839.592     -14.492428    
   2590000   305.09231     -21144.357      2359.2509     -13783.283     -39.277452    
   2595000   295.09193     -21043.828      2407.0846     -13798.872     -18.485551    
   2600000   298.18475     -21061.065      2285.5018     -13886.987      19.831685    
   2605000   292.87188     -20873.006      2275.4789     -13796.052     -42.12925     
   2610000   301.39604     -21116.977      2410.7203     -13765.033      33.516932    
   2615000   298.07125     -21141.046      2308.1305     -13946.2       -24.422167    
   2620000   298.95741     -21054.568      2297.225      -13856.1       -10.51033     
   2625000   301.45501     -21071.72       2405.7813     -13723.748     -17.122048    
   2630000   297.16239     -21025.316      2391.0436     -13762.457     -6.5519056    
   2635000   295.41691     -21168.327      2326.8571     -13998.27       20.66085     
   2640000   299.4366      -21041.021      2409.3285     -13722.593     -22.00969     
   2645000   297.31784     -20964.049      2303.8034     -13785.882     -19.435426    
   2650000   294.29247     -21032.731      2363.9718     -13843.995     -10.914415    
   2655000   299.46014     -21131.18       2370.9088     -13850.785      6.9258461    
   2660000   299.49618     -20987.541      2350.4196     -13727.044     -1.7897347    
   2665000   300.28158     -20967.461      2362.1597     -13682.348     -13.091153    
   2670000   301.22374     -21160.416      2356.6335     -13865.383     -16.199381    
   2675000   299.32761     -21023.647      2382.0906     -13734.243      27.043808    
   2680000   303.96277     -20838.142      2419.0668     -13435.772      1.0495223    
   2685000   302.68716     -21098.525      2369.5249     -13766.609     -6.9180815    
   2690000   300.9803      -20885.413      2280.8442     -13670.16       2.4359114    
   2695000   298.69093     -20979.705      2360.3992     -13722.431     -6.2655814    
   2700000   297.46729     -21085.7        2387.6322     -13821.253      8.6979736    
   2705000   307.33671     -20954.694      2425.2812     -13490.795     -12.46812     
   2710000   299.77198     -20879.091      2381.5467     -13582.947     -9.2155722    
   2715000   299.22012     -21045.725      2443.5124     -13696.662     -7.6183555    
   2720000   297.5159      -20977.49       2419.3141     -13680.565      6.3923963    
   2725000   298.91042     -20920.635      2391.8197     -13628.341     -39.213294    
   2730000   301.31386     -20962.497      2329.2581     -13693.363     -6.9954597    
   2735000   298.57096     -20845.889      2374.4386     -13576.542     -19.867867    
   2740000   304.16747     -21034.903      2345.6594     -13702.583     -12.700311    
   2745000   296.42524     -21029.311      2287.9008     -13881.68       14.404692    
   2750000   298.50391     -21082.586      2346.7723     -13842.004     -21.317823    
   2755000   296.73311     -20970.272      2409.348      -13696.147     -3.9352005    
   2760000   296.72974     -20930.876      2386.5078     -13679.646      8.2526863    
   2765000   305.75908     -21063.38       2388.9427     -13661.684      0.42796515   
   2770000   297.61485     -21023.873      2390.6593     -13753.98       7.175413     
   2775000   302.3848      -20961.877      2357.4643     -13646.978     -8.7427989    
   2780000   299.70859     -20973.271      2309.3032     -13750.409      14.471563    
   2785000   299.76253     -20995.586      2356.2404     -13724.902     -15.318954    
   2790000   298.74957     -20988.659      2350.8065     -13740.016      13.363538    
   2795000   298.78689     -21062.904      2332.092      -13832.364      7.1221572    
   2800000   291.33471     -21027.682      2371.5382     -13879.87       5.9516372    
   2805000   301.84334     -21064.332      2425.494      -13690.281      13.430679    
   2810000   296.06534     -21018.142      2337.9104     -13826.402     -33.627731    
   2815000   303.45196     -20994.897      2323.0048     -13696.963      19.776105    
   2820000   297.29884     -21079.856      2353.8745     -13851.929      3.2714359    
   2825000   298.08517     -21202.037      2389.3683     -13925.725     -9.8937616    
   2830000   303.79742     -21086.951      2355.3433     -13751.014     -1.6213225    
   2835000   297.39208     -21115.083      2393.1006     -13846.401      17.732685    
   2840000   294.9163      -21117.164      2372.3717     -13909.8       -34.777095    
   2845000   304.74104     -21112.308      2361.9209     -13754.324     -18.508084    
   2850000   298.34032     -21041.286      2385.0773     -13765.081      25.442206    
   2855000   302.49252     -21003.666      2340.2197     -13704.247     -1.6814441    
   2860000   296.5708      -21002.328      2381.3715     -13758.84      -30.642657    
   2865000   301.50133     -21040.519      2399.0549     -13698.514      16.953908    
   2870000   301.22307     -21041.021      2328.3517     -13774.282     -5.8459167    
   2875000   299.98347     -20991.595      2380.0841     -13693.446      8.8809381    
   2880000   300.54306     -21019.974      2303.6248     -13789.109      16.042515    
   2885000   301.02386     -21026.779      2383.9495     -13707.707      23.244495    
   2890000   299.90583     -20950.778      2381.4131     -13652.572     -17.926698    
   2895000   296.19657     -21057.764      2380.1932     -13821.589     -28.696324    
   2900000   303.02393     -20956.445      2346.3556     -13642.178     -17.377397    
   2905000   297.54395     -21072.203      2343.2927     -13850.839      6.2898746    
   2910000   298.3402      -21103.763      2380.9609     -13831.677     -13.481082    
   2915000   297.41955     -20962.108      2358.8255     -13727.252      2.146341     
   2920000   294.17026     -20951.725      2386.2518     -13742.712      0.2915171    
   2925000   303.80354     -21042.653      2379.3135     -13682.646     -4.557688     
   2930000   301.31236     -21093.306      2454.1392     -13699.315      4.249843     
   2935000   301.08681     -21047.828      2359.4351     -13752.238     -24.497601    
   2940000   294.93874     -20858.958      2375.6327     -13647.966     -37.490399    
   2945000   298.90973     -21035.081      2373.5785     -13761.04       1.5386301    
   2950000   300.87564     -20956.596      2365.9403     -13657.963     -6.0681776    
   2955000   303.9643      -21047.768      2398.2764     -13666.163      20.810955    
   2960000   299.90886     -21116.842      2338.4625     -13861.537      28.514506    
   2965000   297.57741     -20977.215      2352.9023     -13745.693      3.2280681    
   2970000   298.49185     -21067.312      2407.1219     -13766.579     -33.594934    
   2975000   303.21013     -21098.054      2357.6938     -13769.396     -23.577579    
   2980000   299.59849     -21122.189      2356.9496     -13853.486     -9.368585     
   2985000   298.13053     -21177.446      2308.5863     -13981.172      6.1253396    
   2990000   304.42157     -21030.17       2399.0332     -13640.311     -24.202176    
   2995000   304.35107     -20986.385      2388.9059     -13607.809      3.755727     
   3000000   298.59925     -21059.085      2358.7636     -13804.949     -5.632213     
   3005000   297.50932     -21092.597      2401.7387     -13813.355     -1.5280469    
   3010000   299.55607     -20949.57       2314.9626     -13723.549     -11.690612    
   3015000   302.08114     -21081.34       2398.4177     -13730.467      26.526434    
   3020000   299.54731     -21018.223      2366.8508     -13740.458      14.033546    
   3025000   296.80839     -21038.349      2353.0302     -13819.307      2.0540488    
   3030000   304.90015     -21020.332      2379.7062     -13641.954     -0.79237414   
   3035000   297.76474     -21046.977      2429.0847     -13736.202     -25.282915    
   3040000   302.21594     -21128.49       2383.1094     -13790.715     -26.732688    
   3045000   298.49135     -21133.89       2344.8207     -13895.466      1.1775463    
   3050000   300.58978     -21057.456      2283.8863     -13845.564     -5.6076621    
   3055000   291.94859     -21035.154      2343.5318     -13905.285     -39.789005    
   3060000   292.64417     -21005.566      2352.2058     -13855.619     -40.123375    
   3065000   292.28519     -21185.304      2365.2094     -14028.238      2.6037617    
   3070000   307.31533     -21023.409      2337.8779     -13647.263     -7.1737023    
   3075000   298.82159     -21038.984      2346.243      -13793.724      6.3353451    
   3080000   302.93312     -21006.848      2390.9614     -13649.463      1.2038613    
   3085000   301.13742     -21018.145      2403.4905     -13677.67       4.1926351    
   3090000   306.74484     -20933.126      2316.7366     -13587.475     -8.717623     
   3095000   302.46028     -21006.272      2366.8913     -13680.709      6.1469959    
   3100000   302.35125     -21010.539      2361.9291     -13691.725     -10.663835    
   3105000   302.43006     -21080.282      2355.2759     -13766.831     -22.504138    
   3110000   299.14252     -21174.365      2350.5816     -13919.505     -47.198288    
   3115000   300.81697     -21018.046      2369.8285     -13716.487     -50.287363    
   3120000   298.98196     -21060.625      2366.5529     -13792.426     -8.9340882    
   3125000   294.52874     -21156.387      2346.9363     -13980.812      0.02920391   
   3130000   300.20906     -20974.441      2430.9855     -13621.691     -23.955457    
   3135000   303.17825     -21026.451      2266.9298     -13789.079      7.3895841    
   3140000   301.99594     -21151.786      2373.0245     -13827.702     -5.1390281    
   3145000   301.48675     -20921.009      2406.7798     -13571.519     -8.6288089    
   3150000   298.44698     -21008.682      2319.1306     -13796.676     -31.60793     
   3155000   299.21703     -21087.265      2298.8294     -13882.935     -9.1064831    
   3160000   297.44962     -20895.672      2404.1394     -13615.008     -4.2832078    
   3165000   301.66666     -21092.387      2398.8164     -13747.911     -9.6060768    
   3170000   298.58585     -20981.291      2286.7453     -13799.393      11.665543    
   3175000   300.78112     -21053.297      2360.4292     -13761.725     -17.193896    
   3180000   300.24374     -21048.136      2481.9053     -13643.899     -13.833649    
   3185000   306.3538      -20940.563      2334.1366     -13583.922      31.159333    
   3190000   307.15141     -20975.313      2382.4383     -13557.295     -3.5359128    
   3195000   293.28574     -21042.655      2309.6376     -13924.757     -33.201905    
   3200000   296.42969     -20917.707      2289.5261     -13768.378     -2.728935     
   3205000   299.22771     -21085.733      2420.9488     -13759.108     -8.7630704    
   3210000   294.112       -20982.375      2375.4153     -13785.154      9.2184131    
   3215000   299.23722     -21032.046      2341.3455     -13784.87      -3.7685464    
   3220000   299.19524     -21156.545      2342.1789     -13909.223      12.296683    
   3225000   298.45189     -21030.552      2333.8387     -13803.757     -7.6265279    
   3230000   292.49835     -21010.049      2383.9768     -13830.722     -15.942209    
   3235000   302.92887     -21041.601      2343.1506     -13732.097     -1.8584169    
   3240000   299.67346     -21104.302      2492.1801     -13699.138     -3.3692547    
   3245000   298.00887     -21013.461      2326.3318     -13801.436      24.223313    
   3250000   302.92013     -20928.677      2374.3459     -13588.12      -13.532888    
   3255000   299.67264     -21001.538      2402.3009     -13686.267      2.7448612    
   3260000   298.31985     -20986.004      2389.8944     -13705.318     -1.8905195    
   3265000   298.01099     -21101.722      2368.2552     -13847.739     -11.939056    
   3270000   298.00452     -21034.184      2370.8431     -13777.72      -2.604582     
   3275000   300.57614     -21036.525      2419.8488     -13688.894      5.6046502    
   3280000   298.58604     -21068.329      2395.126      -13778.048      8.100056     
   3285000   299.20831     -21047.611      2356.6108     -13785.643     -19.200303    
   3290000   294.65737     -21058.625      2374.1578     -13853.72       2.9730553    
   3295000   308.86007     -21059          2354.4269     -13640.98      -20.332927    
   3300000   298.50772     -21113.1        2330.0065     -13889.222      6.9220848    
   3305000   298.45025     -20901.276      2331.8344     -13676.512     -5.4412965    
   3310000   298.7057      -20965.89       2344.433      -13724.339     -5.9263441    
   3315000   298.55939     -21019.426      2402.1985     -13722.509      2.6310206    
   3320000   300.76338     -21105.635      2405.1815     -13769.602      1.3088578    
   3325000   295.91747     -21136.08       2357.6289     -13927.045     -1.5654551    
   3330000   299.46474     -21127.444      2335.1658     -13882.717     -1.5666452    
   3335000   302.35949     -20975.966      2333.2597     -13685.687     -31.078722    
   3340000   297.53005     -20966.307      2325.0733     -13763.39      -10.615232    
   3345000   300.00729     -20951.873      2341.0758     -13692.341     -29.866818    
   3350000   299.40885     -20953.911      2384.9205     -13660.345     -4.7437384    
   3355000   298.58961     -21078.353      2424.8028     -13758.336      21.396997    
   3360000   300.2685      -21051.508      2398.4699     -13730.3       -11.333196    
   3365000   298.59694     -20954.106      2345.6055     -13713.166     -8.8252423    
   3370000   306.86658     -21026.392      2344.1344     -13651.347     -7.7937397    
   3375000   300.92129     -20995.748      2363.0768     -13699.23       9.8029029    
   3380000   301.99436     -21071.066      2384.9642     -13735.069      2.1844209    
   3385000   299.82404     -21070.414      2436.2017     -13718.76      -31.543912    
   3390000   303.05471     -21005.818      2349.7024     -13687.699     -16.432164    
   3395000   299.55045     -21034.17       2374.9393     -13748.264      9.9652172    
   3400000   299.30222     -20995.477      2304.6217     -13783.958      28.157499    
   3405000   303.14577     -21032.146      2414.2493     -13647.987     -2.7613872    
   3410000   296.28144     -21023.982      2339.912      -13826.697     -5.9603364    
   3415000   302.88246     -21028.328      2383.306      -13679.429     -10.064751    
   3420000   300.40194     -20997.237      2357.098      -13715.212     -17.372234    
   3425000   298.67645     -21035.584      2373.3042     -13765.642      27.908376    
   3430000   297.78911     -21070.078      2344.3948     -13843.593     -26.262043    
   3435000   305.52262     -21078.431      2359.7473     -13709.806     -10.809255    
   3440000   301.04971     -21044.889      2327.8549     -13781.488     -3.922441     
   3445000   299.21417     -21032.295      2390.2275     -13736.614      13.978       
   3450000   303.47125     -20969.67       2316.6427     -13677.782     -10.03387     
   3455000   297.82444     -21198.275      2384.2579     -13931.347     -19.643303    
   3460000   298.51818     -21104.745      2364.1508     -13846.552      1.3855065    
   3465000   304.37311     -21096.856      2285.5971     -13821.227     -26.005934    
   3470000   293.64243     -21038.288      2350.8877     -13873.292     -25.355767    
   3475000   297.97912     -21003.117      2294.1174     -13823.795     -13.259916    
   3480000   297.75578     -21120.213      2335.3367     -13903.333     -17.119132    
   3485000   297.6219      -21026.591      2351.721      -13795.521     -6.8473457    
   3490000   298.76016     -21077.276      2306.3955     -13872.871     -28.469005    
   3495000   296.11626     -21089.983      2359.795      -13875.523      8.8888093    
   3500000   299.28266     -21054.463      2376.9627     -13770.924     -8.0605719    
   3505000   303.84344     -21048.792      2359.2576     -13708.187     -53.0436      
   3510000   301.82811     -21007.334      2404.5843     -13654.443      0.25500967   
   3515000   299.81722     -21131.505      2374.2223     -13841.943     -13.587903    
   3520000   300.70183     -20969.797      2410.0722     -13629.882     -6.7757963    
   3525000   299.90535     -20934.865      2375.1263     -13642.954     -11.643311    
   3530000   298.19648     -21054.294      2356.6941     -13808.831     -10.500817    
   3535000   306.95335     -21002.107      2368.2313     -13601.543      15.765482    
   3540000   299.70801     -21132.178      2337.1082     -13881.52       19.962021    
   3545000   300.75806     -21072.509      2283.665      -13858.08      -23.92295     
   3550000   299.9651      -21132.952      2327.6584     -13887.529     -4.4757871    
   3555000   301.40683     -21031.141      2367.9472     -13721.792     -19.16065     
   3560000   298.56137     -21202.045      2414.6939     -13892.6       -24.451381    
   3565000   303.93931     -21251.185      2346.7595     -13921.506      1.839809     
   3570000   299.47572     -21040.568      2265.9779     -13864.849     -48.748709    
   3575000   302.18421     -21087.278      2369.9776     -13763.154      5.8993064    
   3580000   305.49366     -20988.323      2416.1224     -13563.798     -13.327525    
   3585000   302.71108     -20957.286      2380.4623     -13614.04      -2.0966296    
   3590000   301.77104     -21113.921      2389.5881     -13776.961     -19.268143    
   3595000   292.73706     -21057.653      2348.4316     -13909.957      9.6307624    
   3600000   298.61308     -20957.955      2367.0511     -13695.305      1.1285205    
   3605000   307.01574     -21052.868      2285.2854     -13734.226      1.6713482    
   3610000   298.84813     -20948.453      2435.0897     -13613.911      6.5957807    
   3615000   300.27281     -20987.848      2311.8976     -13753.142     -20.969634    
   3620000   297.38687     -21053.776      2412.5818     -13765.698     -18.287749    
   3625000   296.12933     -20963.525      2320.008      -13788.638     -11.118423    
   3630000   297.32198     -20973.404      2399.1584     -13699.814      17.414652    
   3635000   304.79538     -21062.83       2334.9032     -13730.972      11.694314    
   3640000   296.40533     -20924.866      2360.2523     -13705.21      -18.254103    
   3645000   301.86115     -20921.543      2388.5623     -13584.131      16.235362    
   3650000   301.50584     -21002.309      2355.9042     -13703.381     -11.939932    
   3655000   303.3829      -21106.527      2341.4948     -13791.235     -24.979488    
   3660000   297.40671     -21048.28       2347.8269     -13824.632      7.2276512    
   3665000   289.86267     -20997.924      2359.2693     -13886.514     -4.6303041    
   3670000   296.65162     -21154.978      2348.1684     -13943.368      2.4783303    
   3675000   305.85439     -20870.591      2325.9157     -13530.359     -5.026417     
   3680000   299.98101     -21067.875      2369.0401     -13780.809     -11.491968    
   3685000   298.95186     -21119.62       2333.7401     -13884.727     -25.007529    
   3690000   291.05771     -21022.438      2346.179      -13904.527      12.632119    
   3695000   302.99344     -21142.231      2302.9946     -13871.824     -10.208405    
   3700000   301.13775     -20978.41       2299.1485     -13742.273     -2.7777875    
   3705000   297.66426     -21057.826      2381.7519     -13796.031     -14.10916     
   3710000   296.52196     -21204.446      2374.2382     -13968.891     -13.707629    
   3715000   302.31131     -21008.962      2283.693      -13769.04      -8.8424982    
   3720000   308.74269     -21100.651      2329.286      -13709.696      7.1626672    
   3725000   305.65783     -21120.561      2342.871      -13766.596      29.063055    
   3730000   297.2973      -21047.57       2387.5978     -13785.945      15.485256    
   3735000   298.95243     -21054.203      2339.6442     -13813.397      5.9840438    
   3740000   301.94353     -21031.052      2349.9289     -13730.923      29.240064    
   3745000   303.42383     -21150.211      2437.5251     -13738.217      12.088097    
   3750000   302.92369     -21143.797      2383.4551     -13794.073     -1.5449768    
   3755000   296.50932     -20986.675      2326.5369     -13799.029      18.055029    
   3760000   299.57752     -21040.936      2351.7735     -13777.752      15.885516    
   3765000   299.94977     -21025.824      2374.9014     -13733.41      -15.163681    
   3770000   302.54977     -21115.567      2317.4599     -13837.968     -12.588877    
   3775000   302.33887     -21126.589      2382.2289     -13787.679     -4.2965519    
   3780000   300.17605     -21082.301      2395.7117     -13765.366     -21.724044    
   3785000   297.60752     -20986.469      2329.5256     -13777.83      -14.144656    
   3790000   295.03746     -21029.187      2301.4869     -13890.722     -23.197153    
   3795000   291.79905     -21034.063      2344.7591     -13905.417      5.8126327    
   3800000   298.66394     -21160.238      2366.7825     -13897.023     -52.090681    
   3805000   296.77099     -21002.249      2389.1828     -13747.668     -1.9673024    
   3810000   299.97926     -21008.729      2370.1439     -13720.588     -14.159127    
   3815000   303.73351     -21042.039      2451.0996     -13611.394      16.560019    
   3820000   305.78767     -21139.144      2291.3376     -13834.584     -1.0303345    
   3825000   295.66559     -21121.876      2380.5236     -13894.076     -21.398996    
   3830000   302.50469     -20981.798      2299.5022     -13722.896     -7.6371489    
   3835000   297.96151     -20981.821      2268.7541     -13828.15      -7.7754326    
   3840000   296.26836     -21094.554      2342.7826     -13894.613     -11.098794    
   3845000   296.54854     -21041.104      2435.9302     -13743.422     -4.7001887    
   3850000   294.99288     -21105.307      2371.7077     -13897.351     -26.514983    
   3855000   302.25603     -21021.52       2385.2637     -13680.933      7.1363227    
   3860000   296.45621     -21043.341      2401.0418     -13782.061      3.256554     
   3865000   302.14579     -20900.944      2353.7991     -13593.63      -22.213081    
   3870000   302.05813     -21109.74       2409.1985     -13748.464      12.736715    
   3875000   301.21979     -21152.332      2386.0787     -13827.919     -0.56899486   
   3880000   301.24703     -21037.331      2357.8396     -13740.71      -11.715639    
   3885000   302.40851     -21019.334      2422.4813     -13639.03       10.011466    
   3890000   297.9539      -21053.54       2491.0098     -13677.739      0.25026098   
   3895000   297.87585     -21077.566      2431.7926     -13762.261     -8.4473362    
   3900000   297.79883     -21091.11       2390.9853     -13817.875     -0.94814243   
   3905000   302.1043      -21120.46       2352.6434     -13814.981     -7.1639023    
   3910000   295.85606     -21025.093      2380.753      -13793.941     -20.894473    
   3915000   289.24863     -21035.848      2391.0861     -13902.688     -0.93973031   
   3920000   295.47402     -21027.898      2327.81       -13855.952     -6.7348494    
   3925000   303.87884     -21022.33       2318.0666     -13722.335      18.534898    
   3930000   299.39299     -21056.554      2372.2036     -13775.965     -21.818384    
   3935000   299.25912     -20985.579      2316.6508     -13762.738     -10.491214    
   3940000   298.89797     -21076.526      2408.934      -13767.322     -27.75645     
   3945000   300.39443     -20949.802      2345.4881     -13679.511     -35.529685    
   3950000   296.87478     -21052.413      2441.5145     -13743.798     -3.2355636    
   3955000   305.89683     -21104.883      2343.4213     -13746.45      -9.8151088    
   3960000   297.11146     -21111.043      2311.2173     -13928.845     -1.3696184    
   3965000   299.42185     -20946.175      2343.9698     -13693.347     -11.526994    
   3970000   304.39968     -20931.919      2396.7368     -13544.715      1.4701177    
   3975000   303.25059     -21051.24       2330.139      -13749.473     -4.4874013    
   3980000   300.05194     -21016.321      2366.6343     -13730.499      30.080973    
   3985000   298.24842     -21058.135      2383.6029     -13784.912      19.057514    
   3990000   300.72089     -21159.921      2376.6349     -13853.131      18.387161    
   3995000   303.47867     -20968.031      2391.1031     -13601.561     -13.431823    
   4000000   298.68141     -21047.131      2378.829      -13771.583      9.0541214    
   4005000   297.52169     -21011.886      2429.7665     -13704.413      0.72035382   
   4010000   296.48676     -21041.377      2348.0935     -13832.544     -26.748749    
   4015000   293.20877     -21014.873      2369.7582     -13838.116      9.995621     
   4020000   298.61357     -21114.591      2435.4351     -13783.549     -38.585667    
   4025000   295.58709     -21065.299      2341.9487     -13877.361     -18.147057    
   4030000   300.9388      -21108.735      2308.7973     -13866.21       4.9259091    
   4035000   291.87501     -20974.414      2341.1444     -13848.138     -14.408715    
   4040000   293.91323     -20896.58       2443.145      -13634.887     -13.487106    
   4045000   300.83509     -21083.003      2374.7743     -13776.201     -3.2038604    
   4050000   305.38408     -21042.885      2374.9058     -13661.374      5.0132341    
   4055000   307.28493     -21059.413      2274.8777     -13746.767     -21.35925     
   4060000   291.31674     -21096.889      2383.8778     -13937.032     -0.42051213   
   4065000   297.37349     -20903.556      2362.1799     -13666.1       -38.108002    
   4070000   297.61382     -21106.682      2381.9478     -13845.517      9.7135878    
   4075000   298.69186     -21013.082      2368.3028     -13747.889      5.9979466    
   4080000   300.23463     -21158.513      2395.7159     -13840.613     -1.6104079    
   4085000   300.25858     -20987.188      2388.1217     -13676.491     -34.418629    
   4090000   303.10328     -21062.026      2298.6876     -13794.126     -3.3083376    
   4095000   297.80672     -20896.549      2406.331      -13607.839     -25.492467    
   4100000   301.66106     -21026.242      2314.6536     -13766.02      -24.961445    
   4105000   299.30446     -21084.143      2315.4564     -13861.753     -0.96111961   
   4110000   301.74549     -21063.402      2342.6906     -13773.759      0.83592623   
   4115000   297.58709     -21131.952      2311.8042     -13941.37      -44.04457     
   4120000   299.05161     -21119.513      2391.6283     -13825.096      8.0233698    
   4125000   304.20845     -21085.215      2378.3243     -13719.558     -9.743211     
   4130000   303.66949     -21094.572      2351.2065     -13764.869     -7.97668      
   4135000   304.17841     -21140.959      2342.9539     -13811.166     -10.472807    
   4140000   297.93947     -20902.35       2387.3026     -13630.492      10.62949     
   4145000   301.95929     -21062.697      2424.656      -13687.583     -3.3121639    
   4150000   291.93025     -20906.756      2455.034      -13665.685      6.9266267    
   4155000   298.59055     -20977.391      2380.9628     -13701.199     -10.478047    
   4160000   297.44805     -21023.302      2385.7        -13761.103     -11.589429    
   4165000   300.46062     -20995.07       2347.6935     -13721.488      5.2459087    
   4170000   301.33482     -21016.087      2415.447      -13660.419     -15.381788    
   4175000   300.86539     -20952.706      2348.8306     -13671.351     -23.200102    
   4180000   297.28647     -20934.48       2410.8968     -13649.733     -41.619228    
   4185000   301.15763     -21041.555      2451.9495     -13652.29      -4.3238086    
   4190000   301.73356     -20932.133      2319.7068     -13665.669      9.9096273    
   4195000   301.81277     -20987.649      2389.9388     -13649.654     -11.495716    
   4200000   301.62021     -20906.317      2413.1304     -13548.287      13.292831    
   4205000   305.48397     -21165.198      2373.648      -13783.307      9.4336818    
   4210000   301.66579     -21030.081      2358.1704     -13726.264     -15.12832     
   4215000   300.80129     -20924.421      2367.4786     -13625.47       0.13596517   
   4220000   301.4092      -20915.46       2373.9283     -13600.092     -2.3920887    
   4225000   302.08192     -20916.765      2406.9207     -13557.376     -8.0353862    
   4230000   296.25201     -21121.253      2374.7963     -13889.566      29.00169     
   4235000   296.41478     -20971.395      2406.227      -13705.61      -6.6120827    
   4240000   301.23515     -20937.365      2436.5846     -13562.194     -7.0035557    
   4245000   294.9104      -21020.066      2375.2782     -13809.892     -9.9829124    
   4250000   305.1507      -21077.014      2397.5941     -13676.64      -26.713689    
   4255000   301.62711     -20981.725      2338.2801     -13698.432     -2.805176     
   4260000   305.24544     -20994.393      2389.7514     -13600.309      0.80961969   
   4265000   300.54953     -21034.033      2312.978      -13793.709      8.503236     
   4270000   295.23301     -21052.575      2390.7903     -13821.6       -0.66378628   
   4275000   301.37893     -21120.826      2330.3906     -13849.492     -27.226842    
   4280000   298.63324     -21000.923      2306.1469     -13798.847      26.180663    
   4285000   300.35445     -20931.823      2282.0427     -13725.632      4.9657213    
   4290000   297.11121     -21019.21       2359.1625     -13789.072     -25.096101    
   4295000   298.58499     -21030.449      2349.5604     -13785.751     -14.81455     
   4300000   303.84135     -21025.325      2320.2834     -13723.729     -20.650846    
   4305000   298.42815     -21010.012      2385.9022     -13731.543      0.52473638   
   4310000   300.93926     -20965.489      2356.346      -13675.408      1.7961919    
   4315000   299.81937     -21121.85       2427.7038     -13778.771     -10.504542    
   4320000   298.22369     -21078.242      2354.5339     -13834.493      18.892978    
   4325000   297.40561     -21087.505      2410.0373     -13801.665      15.514636    
   4330000   295.90623     -20932.929      2342.0864     -13739.621      0.31365552   
   4335000   301.41169     -21007.923      2404.1677     -13662.275     -12.740679    
   4340000   302.70797     -20976.86       2413.1941     -13600.934      12.24642     
   4345000   303.61432     -21027.88       2314.9        -13735.389     -14.543813    
   4350000   301.17262     -21005.072      2375.0813     -13692.43       8.9478023    
   4355000   299.66184     -21213.359      2305.6195     -13994.947      4.6153328    
   4360000   295.82872     -21037.978      2312.9092     -13875.118     -22.448288    
   4365000   299.85687     -21232.24       2403.17       -13913.08       10.786111    
   4370000   304.12078     -21110.407      2334.0794     -13790.433      1.196441     
   4375000   301.61202     -21058.989      2354.4821     -13759.742     -4.8220779    
   4380000   300.55197     -21141.302      2362.0847     -13851.831     -12.131717    
   4385000   304.17827     -20888.255      2418.7778     -13482.641      8.8560115    
   4390000   300.00755     -20966.978      2370.4777     -13678.04      -0.64623273   
   4395000   293.79301     -21042.658      2321.2866     -13904.795     -27.265573    
   4400000   299.50866     -20948.809      2400.71       -13637.817     -6.3944763    
   4405000   301.6563      -21101.749      2353.0955     -13803.162     -34.962764    
   4410000   293.87562     -21051.844      2359.974      -13873.939      27.542792    
   4415000   302.09166     -21127.818      2389.7546     -13785.435      13.125396    
   4420000   297.04985     -21019.27       2352.3709     -13796.928     -23.134807    
   4425000   303.15045     -21156.185      2455.9824     -13730.216      8.3139308    
   4430000   297.3424      -21034.244      2324.0266     -13835.451      39.440162    
   4435000   299.21243     -20974.266      2367.4348     -13701.406     -22.720132    
   4440000   299.23963     -21062.37       2328.2044     -13828.295     -13.37494     
   4445000   301.99654     -21063.885      2352.0718     -13760.744      23.483298    
   4450000   301.49643     -20996.118      2369.8321     -13683.417      3.7771728    
   4455000   292.58255     -21116.671      2346.7827     -13973.156     -16.339999    
   4460000   298.8526      -21113.406      2318.1597     -13895.72      -4.7316772    
   4465000   301.54369     -20976.706      2362.7325     -13670.329      9.7157862    
   4470000   302.86981     -21097.427      2410.654      -13721.387     -5.3760362    
   4475000   298.00407     -21126.603      2341.0698     -13899.919     -11.025871    
   4480000   298.35998     -21051.793      2330.3653     -13829.978     -24.575588    
   4485000   298.13662     -21172.092      2368.1966     -13916.107     -15.885949    
   4490000   295.64286     -21127.668      2397.0461     -13883.718     -5.3826942    
   4495000   299.64368     -21039.502      2317.6328     -13809.374     -13.734737    
   4500000   295.87192     -20918.228      2360.8192     -13706.75      -12.513608    
   4505000   303.41245     -21089.467      2375.4977     -13739.688     -6.4314712    
   4510000   299.57414     -21020.811      2363.3231     -13746.133      1.390719     
   4515000   305.39105     -21004.711      2290.5174     -13707.474      0.37068544   
   4520000   294.96668     -21062.433      2440.2612     -13786.353      9.1220651    
   4525000   298.01019     -20924.723      2400.6986     -13638.31      -7.1961775    
   4530000   294.47402     -21017.942      2400.8051     -13789.396      1.689863     
   4535000   295.1728      -21157.26       2412.1418     -13905.921      14.227248    
   4540000   306.13295     -21076.778      2397.5898     -13660.305     -5.3667973    
   4545000   298.56592     -21036.166      2316.3698     -13824.97       1.1076265    
   4550000   304.33755     -21218.792      2345.8772     -13883.466      13.540554    
   4555000   300.28529     -21142.67       2353.1633     -13866.493      3.2551438    
   4560000   297.92286     -21057.441      2306.1082     -13867.05      -0.12096857   
   4565000   299.35227     -21046.204      2382.5535     -13755.933     -41.572149    
   4570000   302.79026     -20991.141      2404.6704     -13622.389      21.288396    
   4575000   298.96801     -21053.273      2355.7031     -13796.152      7.420258     
   4580000   304.93755     -21000.496      2352.5558     -13648.655      13.546241    
   4585000   305.43097     -21042.763      2340.4827     -13694.906     -33.426787    
   4590000   297.97251     -21098.529      2319.4837     -13893.949      0.61299562   
   4595000   302.11202     -21086.617      2330.2968     -13803.358     -15.037193    
   4600000   299.09355     -21187.519      2315.8737     -13968.169     -6.6032813    
   4605000   303.23584     -20992.701      2334.9644     -13686.35      -22.052705    
   4610000   298.15239     -21034.694      2361.2356     -13785.412      7.4245418    
   4615000   303.39406     -20986.781      2344.9555     -13667.845     -1.5742664    
   4620000   302.41102     -20921.151      2394.3313     -13568.956     -32.222128    
   4625000   300.05414     -20990          2349.8879     -13720.888     -8.4003633    
   4630000   306.90835     -20998.859      2409.7454     -13557.519     -11.776336    
   4635000   306.07773     -20826.108      2413.5273     -13394.603      15.445451    
   4640000   296.03009     -21005.589      2267.2855     -13885.051      0.4218841    
   4645000   298.97165     -21055.681      2376.4636     -13777.741     -0.7255077    
   4650000   298.82363     -21141.288      2344.5363     -13897.701     -28.477296    
   4655000   301.78571     -21012.085      2369.3804     -13695.093      5.2170778    
   4660000   304.31577     -20980.596      2414.9383     -13576.567     -5.9915217    
   4665000   306.14501     -20973.284      2375.5243     -13578.679      9.728951     
   4670000   296.40696     -20990.075      2426.747      -13703.897     -19.239095    
   4675000   300.81305     -21104.634      2347.3639     -13825.604     -17.024804    
   4680000   297.17657     -21115.949      2394.9065     -13848.995     -15.850686    
   4685000   300.04313     -21156.213      2365.9404     -13871.228     -15.017147    
   4690000   295.74654     -21082.211      2362.2153     -13871.392     -32.820579    
   4695000   295.04907     -21083.991      2354.1572     -13892.665     -7.3390178    
   4700000   296.46006     -20951.529      2297.6284     -13793.6       -28.331479    
   4705000   300.22515     -21036.84       2348.4385     -13766.374     -12.182821    
   4710000   304.26486     -21060.458      2340.9161     -13731.285      20.01811     
   4715000   296.18241     -21010.284      2428.5683     -13725.966     -3.6320557    
   4720000   298.98124     -21079.606      2383.2997     -13794.671     -3.6633014    
   4725000   300.24224     -20956.739      2319.6772     -13714.754     -20.01098     
   4730000   300.4074      -20964.269      2311.3522     -13727.901      25.779974    
   4735000   305.01458     -21008.913      2356.4009     -13651.965      27.521052    
   4740000   300.01658     -21031.202      2358.9934     -13753.6        14.418075    
   4745000   310.2239      -21058.374      2396.5915     -13575.831     -13.538686    
   4750000   296.85332     -21018.145      2438.4601     -13712.936      8.0852741    
   4755000   296.62596     -20993.646      2351.169      -13779.456     -7.0487271    
   4760000   300.36921     -21069.486      2402.8134     -13742.283     -22.400729    
   4765000   299.13517     -20987.346      2293.7099     -13789.478      23.056867    
   4770000   307.33593     -21048.546      2310.4466     -13699.494     -11.102158    
   4775000   297.65709     -20857.174      2411.1586     -13566.089      0.83250651   
   4780000   300.9535      -21056.776      2339.3331     -13783.474     -15.123052    
   4785000   301.11304     -21072.748      2389.3139     -13746.85      -7.8751668    
   4790000   298.95789     -21078.107      2372.0994     -13804.756      9.7849425    
   4795000   308.39202     -21176.729      2332.5401     -13788.27       8.5326701    
   4800000   299.02391     -20904.126      2355.6924     -13646.1       -35.039752    
   4805000   301.46346     -21158.218      2417.9562     -13797.933     -25.670918    
   4810000   295.47923     -21084.222      2418.0217     -13821.979     -12.029474    
   4815000   301.10579     -21023.377      2396.3265     -13690.585      11.767059    
   4820000   304.28227     -21111.385      2326.2005     -13796.642      2.7699898    
   4825000   304.32708     -21074.304      2384.0978     -13700.93      -18.359748    
   4830000   300.84067     -21036.603      2369.5407     -13734.943     -21.134373    
   4835000   303.71863     -21006.277      2342.0651     -13684.911     -2.2787892    
   4840000   299.26344     -20945.015      2390.3626     -13648.391     -47.418393    
   4845000   300.17704     -20994.314      2309.918      -13763.157     -13.43074     
   4850000   303.56479     -20964.425      2375.39       -13612.255     -26.329742    
   4855000   299.30578     -21018.596      2321.7399     -13789.901      12.71343     
   4860000   302.62348     -20994.977      2316.5848     -13717.045     -15.661107    
   4865000   303.00095     -21140.941      2389.8738     -13783.532      37.949962    
   4870000   295.94667     -21125.181      2374.6765     -13898.62       6.7994349    
   4875000   304.28805     -21005.856      2340.9403     -13676.279     -6.7157288    
   4880000   298.13254     -21052.055      2444.5804     -13719.754      2.989333     
   4885000   297.06023     -21023.498      2346.2758     -13807.082     -36.328895    
   4890000   298.5371      -21058.024      2315.0066     -13848.664     -11.960332    
   4895000   300.81557     -21099.179      2380.1273     -13787.345     -23.711038    
   4900000   299.27072     -21092.335      2392.1545     -13793.8       -12.205742    
   4905000   297.2622      -21177.454      2417.5315     -13886.47      -21.597055    
   4910000   297.91124     -21076.278      2451.6767     -13740.509      3.6711135    
   4915000   300.9354      -20983.505      2278.6246     -13771.209     -34.403007    
   4920000   296.88818     -21044.712      2386.9165     -13790.476     -22.11464     
   4925000   293.44298     -20926.236      2342.72       -13772.678     -25.570689    
   4930000   300.79913     -20983.053      2411.73       -13639.885     -12.215753    
   4935000   302.00058     -20963.586      2288.2301     -13724.221     -38.30568     
   4940000   304.31509     -21010.321      2326.6236     -13694.617      1.2282795    
   4945000   295.91071     -21089.727      2346.9613     -13891.471     -0.63832511   
   4950000   293.26232     -21037.428      2374.4135     -13855.138     -4.5460083    
   4955000   298.35715     -21135.61       2430.2046     -13814.002     -6.6990848    
   4960000   304.07148     -21026.467      2408.3179     -13633.062     -21.783808    
   4965000   300.08435     -20953.031      2415.0108     -13618.301     -32.690999    
   4970000   302.92328     -21014.101      2430.9299     -13616.909     -23.90598     
   4975000   297.95736     -20952.772      2386.4957     -13681.428     -13.805885    
   4980000   302.38852     -20893.547      2392.7569     -13543.295      6.0885106    
   4985000   302.01842     -21145.894      2388.228      -13806.239      11.810131    
   4990000   307.11948     -20959.979      2343.6878     -13581.234      2.6673352    
   4995000   300.54686     -21133.034      2384.7633     -13820.968      5.5683309    
   5000000   297.56043     -21051.12       2393.8166     -13778.962     -8.4941124    
   5005000   301.18791     -21017.034      2359.0205     -13720.202     -19.286296    
   5010000   304.03162     -20987.128      2398.2445     -13604.451     -19.927254    
Loop time of 25972.8 on 18 procs for 5000000 steps with 5501 atoms

Performance: 498.984 ns/day, 0.048 hours/ns, 192.509 timesteps/s
99.6% CPU use with 18 MPI tasks x 1 OpenMP threads

MPI task timing breakdown:
Section |  min time  |  avg time  |  max time  |%varavg| %total
---------------------------------------------------------------
Pair    | 38.743     | 1779       | 9077.2     |6155.3 |  6.85
Bond    | 6.1889     | 99.148     | 427.86     |1246.3 |  0.38
Neigh   | 13287      | 13314      | 13361      |  23.0 | 51.26
Comm    | 2537.2     | 10440      | 12357      |2767.5 | 40.20
Output  | 108.98     | 109.12     | 109.19     |   0.6 |  0.42
Modify  | 9.7365     | 102.37     | 424.21     |1210.1 |  0.39
Other   |            | 129.6      |            |       |  0.50

Nlocal:        305.611 ave        1372 max          11 min
Histogram: 8 1 7 0 0 0 0 0 0 2
Nghost:        9490.44 ave       11549 max        5792 min
Histogram: 2 0 0 0 3 5 0 0 1 7
Neighs:        12087.5 ave       64308 max         172 min
Histogram: 8 6 2 0 0 0 0 0 0 2
FullNghs:        24175 ave      125598 max         511 min
Histogram: 8 7 1 0 0 0 0 0 0 2

Total # of neighbors = 435150
Ave neighs/atom = 79.103799
Ave special neighs/atom = 3.5993456
Neighbor list builds = 500000
Dangerous builds = 500000
Total wall time: 7:13:07
