LAMMPS (23 Jun 2022)
OMP_NUM_THREADS environment is not set. Defaulting to 1 thread. (src/src/comm.cpp:98)
  using 1 OpenMP thread(s) per MPI task
Created orthogonal box = (0 0 0) to (150 150 150)
  2 by 3 by 3 MPI processor grid
Read molecule template lig:
  1 molecules
  0 fragments
  5 atoms with max type 2
  4 bonds with max type 1
  3 angles with max type 1
  0 dihedrals with max type 0
  0 impropers with max type 0
Created 1 atoms
  using box units in orthogonal box = (0 0 0) to (150 150 150)
  create_atoms CPU = 0.000 seconds
Created 5000 atoms
  using lattice units in orthogonal box = (0 0 0) to (150 150 150)
  create_atoms CPU = 0.002 seconds
Finding 1-2 1-3 1-4 neighbors ...
  special bond factors lj:    0        1        1       
  special bond factors coul:  0        0        0       
     2 = max # of 1-2 neighbors
     2 = max # of 1-3 neighbors
     2 = max # of 1-4 neighbors
     7 = max # of special neighbors
  special bonds CPU = 0.001 seconds
5000 atoms in group ligands
Generated 0 of 6 mixed pair_coeff terms from geometric mixing rule
Neighbor list info ...
  update every 1 steps, delay 10 steps, check yes
  max neighbors/atom: 2000, page size: 100000
  master list distance cutoff = 60
  ghost atom cutoff = 60
  binsize = 30, bins = 5 5 5
  1 neighbor lists, perpetual/occasional/extra = 1 0 0
  (1) pair lj/expand, perpetual
      attributes: half, newton on
      pair build: half/bin/newton
      stencil: half/bin/3d
      bin: standard
Setting up Verlet run ...
  Unit style    : real
  Current step  : 0
  Time step     : 30
Per MPI rank memory allocation (min/avg/max) = 8.54 | 8.573 | 8.61 Mbytes
   Step          Temp          E_pair         E_mol          TotEng         Press     
         0   0              5.5877274e+14  6.3037122e-25  5.5877274e+14 -3.0135571e+15
      5000   140.01272     -1141.0827      1078.472       2024.1458     -5.7830923    
     10000   143.32935     -1291.9682      1060.7771      1904.9968      4.6689144    
Loop time of 8.74246 on 18 procs for 10000 steps with 5001 atoms

Performance: 2964.839 ns/day, 0.008 hours/ns, 1143.842 timesteps/s
99.6% CPU use with 18 MPI tasks x 1 OpenMP threads

MPI task timing breakdown:
Section |  min time  |  avg time  |  max time  |%varavg| %total
---------------------------------------------------------------
Pair    | 0.43169    | 0.65126    | 1.1252     |  21.2 |  7.45
Bond    | 0.11679    | 0.14035    | 0.17995    |   4.2 |  1.61
Neigh   | 4.4413     | 4.4482     | 4.4575     |   0.2 | 50.88
Comm    | 2.636      | 3.2044     | 3.4851     |  11.5 | 36.65
Output  | 7.5793e-05 | 8.8611e-05 | 0.00013321 |   0.0 |  0.00
Modify  | 0.1546     | 0.18977    | 0.24687    |   5.4 |  2.17
Other   |            | 0.1084     |            |       |  1.24

Nlocal:        277.833 ave         349 max         215 min
Histogram: 1 2 2 4 0 2 3 2 1 1
Nghost:        8021.67 ave        8321 max        7702 min
Histogram: 2 1 0 1 4 3 4 1 1 1
Neighs:        2952.94 ave        4787 max        1734 min
Histogram: 3 1 2 2 4 4 0 1 0 1

Total # of neighbors = 53153
Ave neighs/atom = 10.628474
Ave special neighs/atom = 3.5992801
Neighbor list builds = 909
Dangerous builds = 1
1 atoms in group nps
1000 atoms in group amines
Generated 0 of 6 mixed pair_coeff terms from geometric mixing rule
Neighbor list info ...
  update every 1 steps, delay 10 steps, check yes
  max neighbors/atom: 2000, page size: 100000
  master list distance cutoff = 60
  ghost atom cutoff = 60
  binsize = 30, bins = 5 5 5
  2 neighbor lists, perpetual/occasional/extra = 1 1 0
  (1) pair lj/expand, perpetual
      attributes: half, newton on
      pair build: half/bin/newton
      stencil: half/bin/3d
      bin: standard
  (2) compute coord/atom, occasional
      attributes: full, newton on
      pair build: full/bin
      stencil: full/bin/3d
      bin: standard
Setting up Verlet run ...
  Unit style    : real
  Current step  : 10000
  Time step     : 30
Per MPI rank memory allocation (min/avg/max) = 7.896 | 7.931 | 7.964 Mbytes
   Step          Temp          E_pair         E_mol          TotEng         Press     
     10000   143.32935     -1291.9682      1060.7771      1904.9968      4.6689144    
     15000   298.85297     -1254.8981      2124.4167      5323.6383      26.089434    
     20000   300.971       -1455.083       2176.6306      5207.2345      14.250216    
     25000   304.68269     -1611.3227      2130.2776      5059.9611      12.920947    
     30000   301.37969     -1727.7874      2168.1891      4932.1798      20.194809    
     35000   297.94882     -1837.8786      2123.9701      4726.7357      26.042917    
     40000   302.81103     -1932.8512      2176.6517      4756.9113      12.796055    
     45000   301.2107      -2039.7547      2169.258       4618.7627     -1.2453578    
     50000   302.42156     -2091.4289      2169.2276      4585.1048      11.845096    
     55000   299.91502     -2182.1741      2181.0306      4468.805       15.470964    
     60000   306.43225     -2193.9429      2233.0229      4606.1617      7.4510213    
     65000   304.39475     -2203.8565      2173.8195      4506.6776     -0.34601882   
     70000   304.49646     -2264.2797      2181.3532      4455.3039      10.530783    
     75000   295.81698     -2282.6628      2206.6214      4332.8297      42.328746    
     80000   299.69366     -2342.3866      2108.8967      4233.1594      22.000031    
     85000   302.89916     -2379.1346      2094.9261      4230.2158      12.420695    
     90000   294.41946     -2442.3961      2128.3698      4074.0162      1.1936896    
     95000   297.40049     -2390.7686      2177.767       4219.4703     -15.284569    
    100000   295.98215     -2483.165       2243.0629      4171.2307      23.914812    
    105000   305.47556     -2509.6279      2141.8764      4185.0716      31.659026    
    110000   296.4696      -2499.1246      2177.199       4096.6722      5.9350601    
    115000   301.37125     -2594.2929      2109.342       4006.7014      10.357212    
    120000   294.46128     -2588.8333      2193.4253      3993.2577      29.593705    
    125000   302.18287     -2614.2899      2123.7204      4013.1792      13.048587    
    130000   291.08254     -2633.4722      2134.8104      3839.6471      11.144534    
    135000   298.10686     -2655.537       2141.0346      3928.4972      13.592854    
    140000   305.80712     -2656.9482      2182.1462      4082.9627      14.590391    
    145000   301.10071     -2680.7076      2141.2532      3948.1657      1.3923542    
    150000   299.22275     -2746.1671      2093.3691      3806.8329      21.194867    
    155000   298.85262     -2752.4557      2142.2998      3843.9585     -0.95325321   
    160000   302.62635     -2789.2501      2194.1729      3915.2811      8.5649301    
    165000   297.72752     -2793.8678      2095.7695      3739.2476      14.34048     
    170000   297.63568     -2815.06        2142.2023      3763.1195      0.11144456   
    175000   300.10317     -2829.3567      2120.1047      3763.5007      34.263706    
    180000   299.35149     -2818.0907      2148.9971      3792.4559      9.0124479    
    185000   297.28988     -2828.8667      2105.8923      3707.8489     -16.159215    
    190000   299.07558     -2810.2516      2103.4459      3750.6317      30.096107    
    195000   295.20063     -2867.755       2110.4439      3642.374      -9.1921334    
    200000   300.14001     -2840.3998      2124.6373      3757.5393      10.200438    
    205000   301.60145     -2848.997       2144.4842      3790.5704     -9.0659706    
    210000   299.18774     -2872.8282      2139.3037      3725.5845     -6.8968314    
    215000   303.39633     -2901.3277      2116.7883      3737.2947      31.386929    
    220000   298.81345     -2866.7921      2155.4108      3742.1495     -0.39056358   
    225000   300.36581     -2907.6139      2116.7985      3685.8518     -3.1520057    
    230000   300.49877     -2897.2946      2129.735       3711.0891      14.574358    
    235000   293.06941     -2939.9686      2078.3079      3506.2605     -0.87028762   
    240000   296.33516     -2913.2371      2136.0792      3639.4363      42.34084     
    245000   296.97329     -2916.4716      2091.6922      3601.3255      4.5770911    
    250000   296.86667     -2921.8182      2119.1053      3621.8028      22.31782     
    255000   300.49366     -2905.6412      2200.9455      3773.8768      10.585008    
    260000   301.01284     -2923.4923      2093.965       3656.7831     -3.9086767    
    265000   297.88702     -2909.837       2099.153       3629.0391      15.956019    
    270000   296.68494     -2913.2444      2139.7758      3648.3386      29.852406    
    275000   298.17349     -2959.206       2124.8476      3609.6342     -6.6956648    
    280000   298.70289     -2950.2874      2049.9335      3551.5289      5.2925       
    285000   300.76923     -2944.9986      2173.1315      3710.8126     -13.76826     
    290000   302.66581     -2936.0628      2089.7332      3664.6168      28.82667     
    295000   299.91552     -2959.1259      2154.2591      3665.0892      13.084469    
    300000   295.86489     -2932.911       2116.7876      3593.4617      25.166675    
    305000   310.56948     -2934.3518      2078.75        3773.1414     -0.48458847   
    310000   300.93258     -2975.2902      2116.4271      3626.2513      11.407398    
    315000   304.36837     -2950.1125      2078.5552      3664.7643      29.839174    
    320000   299.47791     -2998.8276      2109.8276      3574.4337      36.423722    
    325000   299.18298     -2942.3092      2116.9562      3633.6851      13.001754    
    330000   300.87799     -2923.6981      2094.2479      3654.8504      26.931668    
    335000   295.41352     -2956.8924      2141.5981      3587.5636      10.304382    
    340000   293.1601      -2931.6012      2117.9715      3555.6433      25.050788    
    345000   298.48858     -2934.7565      2103.2678      3617.2         19.879545    
    350000   297.19484     -2940.912       2137.6437      3626.1385      9.1343836    
    355000   298.98106     -2941.9533      2106.7481      3620.8236     -3.8532934    
    360000   305.54684     -2910.262       2128.4454      3772.0689      11.673721    
    365000   299.11933     -2876.4827      2043.4119      3625.0187     -8.8799383    
    370000   298.3891      -2889.3631      2118.2174      3676.0604      19.516112    
    375000   303.30663     -2906.6875      2092.9211      3706.7309      15.077749    
    380000   301.44113     -2938.7338      2129.9122      3683.8722      9.0516928    
    385000   302.667       -2947.9631      2107.0413      3670.0424      14.220672    
    390000   296.2943      -2950.8116      2113.1069      3578.2804      9.8641102    
    395000   300.05215     -2957.564       2115.0642      3629.4924      3.115614     
    400000   302.05129     -2891.0984      2176.1591      3786.8483      25.231322    
    405000   301.11276     -2901.1398      2082.2145      3668.8744      16.51894     
    410000   294.89506     -2958.829       2051.4917      3487.7935      9.5616253    
    415000   303.18755     -2970.2193      2116.5338      3665.0371      15.450741    
    420000   298.04136     -2989.7767      2110.319       3562.5656     -4.7312593    
    425000   296.3286      -2958.7713      2081.3842      3539.1094     -10.747141    
    430000   302.39602     -2979.1816      2121.7908      3649.5346      32.919894    
    435000   299.05564     -2987.3232      2074.8342      3544.6512      8.4090915    
    440000   297.94952     -2967.5119      2109.5337      3582.6764      46.528455    
    445000   295.36918     -2995.0528      2166.9164      3574.0606      1.7808509    
    450000   298.81919     -3009.4061      2121.1669      3565.3771      12.327907    
    455000   296.94501     -2991.0408      2149.3511      3583.9937      3.8161362    
    460000   302.01693     -2977.7001      2109.4693      3633.0446     -4.4831001    
    465000   301.64117     -3002.3734      2137.6891      3630.9908      29.612268    
    470000   296.28744     -3016.0016      2154.3617      3554.2429     -2.3439763    
    475000   303.10458     -2980.9226      2177.7014      3714.2647      16.767588    
    480000   302.00415     -2981.5553      2141.3307      3660.8605      19.535371    
    485000   298.30311     -2957.7983      2098.42        3586.5462     -4.003408     
    490000   301.76581     -2972.364       2157.7226      3682.8913      26.6371      
    495000   297.69358     -2974.2518      2117.3793      3579.9675      8.5511949    
    500000   302.02263     -2976.1072      2122.8668      3648.12        16.601279    
    505000   297.39084     -2981.829       2166.5647      3617.0637      0.70075923   
    510000   304.22516     -2934.1983      2130.0069      3729.9956      16.393483    
    515000   305.33875     -2965.1517      2159.15        3744.7824      31.742791    
    520000   298.0066      -2974.4743      2105.0208      3572.0517      21.225695    
    525000   298.87584     -2991.1738      2120.534       3583.8207      27.128358    
    530000   300.23557     -2916.7506      2108.7102      3666.6857     -12.619251    
    535000   306.25812     -2952.4615      2159.8721      3771.897       30.15793     
    540000   300.17767     -2934.0683      2125.3369      3665.1317      13.200721    
    545000   300.23        -2921.7137      2113.1112      3666.0405     -3.6862576    
    550000   301.67734     -2937.3162      2116.275       3675.173       22.286501    
    555000   304.26389     -2926.9755      2124.047       3731.8358     -10.922214    
    560000   296.4813      -2919.0722      2138.1167      3637.8166      3.2298523    
    565000   297.09304     -2910.6852      2091.9034      3609.1078      20.034346    
    570000   295.12084     -2885.2384      2153.0883      3666.3457      1.6214623    
    575000   301.18998     -2903.9728      2156.1931      3741.1708     -17.794293    
    580000   306.92718     -2859.3649      2101.0796      3816.1728      0.91707268   
    585000   297.55876     -2899.5929      2066.1998      3601.4375      25.538659    
    590000   297.07438     -2918.9505      2161.7876      3670.4486     -4.0157552    
    595000   293.67632     -2905.9709      2116.6686      3587.6643      33.288569    
    600000   300.42154     -2888.4241      2145.4839      3734.5575      7.4497257    
    605000   298.53676     -2947.2665      2091.1636      3593.3038      0.42366606   
    610000   298.51282     -2870.1189      2135.1836      3714.1149      18.150518    
    615000   303.28898     -2908.1491      2115.9081      3727.9932      23.715958    
    620000   295.35071     -2903.0035      2058.6046      3557.5229      8.2425913    
    625000   299.83271     -2918.4182      2145.0728      3695.3764     -7.2468303    
    630000   303.38956     -2930.9271      2091.5184      3682.3246      39.236673    
    635000   295.62427     -2955.2929      2119.6208      3570.3269     -20.007144    
    640000   301.67009     -2932.4059      2165.6084      3729.3086      10.190941    
    645000   301.86376     -2961.6962      2078.8528      3616.1491      20.183093    
    650000   302.76035     -2962.2041      2062.0802      3612.2315     -10.695578    
    655000   303.07424     -3004.187       2184.3363      3697.183      -1.3530583    
    660000   300.16871     -2988.2293      2085.31        3570.8102      16.477162    
    665000   294.52492     -2984.0798      2174.4562      3579.9906     -3.9002552    
    670000   299.984       -3008.6681      2081.6915      3544.0001      19.683817    
    675000   303.8502      -2994.6357      2111.4734      3645.4364      16.79101     
    680000   299.29625     -2999.1391      2081.9085      3543.4958      23.593924    
    685000   298.59758     -2971.1355      2098.7384      3577.9163      4.8386431    
    690000   296.67246     -2966.3351      2172.4372      3627.7233      2.2747905    
    695000   301.07047     -2959.1107      2117.1974      3645.2561      6.1546507    
    700000   308.49337     -2934.5572      2103.1407      3766.3843      25.693735    
    705000   300.45318     -2941.0253      2088.8871      3625.8311      16.639208    
    710000   300.8299      -2992.4793      2134.3971      3625.5018      22.107791    
    715000   299.0613      -2967.5877      2080.4719      3570.1088      8.8263875    
    720000   297.70308     -3014.2745      2130.847       3553.5542      16.442308    
    725000   299.89423     -2962.7971      2071.8616      3578.7032      32.871178    
    730000   291.82741     -3017.192       2033.1778      3365.396       11.068481    
    735000   303.47835     -3013.5065      2124.7733      3634.3234     -3.4004795    
    740000   305.46566     -3054.3718      2061.2673      3559.571      -2.3111073    
    745000   301.711       -3032.8448      2140.8612      3604.7322      30.581994    
    750000   299.31122     -3022.7348      2101.5444      3539.7591      32.689322    
    755000   299.00758     -3014.3985      2131.7026      3573.728       4.6987959    
    760000   296.1975      -3035.1963      2134.8184      3514.1646      13.268576    
    765000   308.63999     -3034.3797      2130.5275      3696.1337      11.48663     
    770000   303.48341     -3034.2734      2109.5833      3598.4419      30.039179    
    775000   305.19213     -3030.5775      2052.0587      3570.0801      7.2845009    
    780000   300.09035     -3041.4971      2107.1774      3538.242       35.433063    
    785000   302.15173     -2991.1351      2142.7686      3654.918      -2.0485568    
    790000   304.09546     -2970.6664      2091.9283      3653.516       26.553214    
    795000   298.83958     -2988.2066      2091.4776      3557.1911      11.195752    
    800000   304.0726      -2996.0126      2111.3253      3647.226      -2.3611274    
    805000   300.2379      -2990.4785      2147.1168      3631.3991      24.157387    
    810000   294.80512     -2932.1028      2165.6287      3627.3163      11.308921    
    815000   296.4849      -2977.4575      2121.5037      3562.872       26.612214    
    820000   305.0777      -2979.6549      2100.2436      3667.4821      23.212484    
    825000   301.17204     -2963.9401      2087.5211      3612.2642     -12.370055    
    830000   302.72634     -2970.2087      2063.2538      3604.8936      9.0704354    
    835000   298.13325     -2927.9469      2077.8876      3593.3336      46.980785    
    840000   303.51443     -2975.9661      2136.624       3684.2522      14.81942     
    845000   295.67508     -2980.3622      2074.1428      3500.5368      19.675828    
    850000   301.28698     -2980.5298      2179.4618      3689.3282      22.215393    
    855000   299.08833     -3005.9181      2161.5761      3613.2854      30.685292    
    860000   294.13745     -3023.5208      2077.3261      3437.6447      9.9768388    
    865000   305.92762     -3061.1518      2062.4775      3560.8864      46.04047     
    870000   296.17686     -3038.393       2143.8322      3519.6741      14.928312    
    875000   303.58667     -3014.7201      2086.0366      3595.9875      10.306914    
    880000   299.98518     -3025.6047      2124.8156      3570.2051      25.005181    
    885000   299.39979     -3044.9019      2113.732       3531.0997      33.078795    
    890000   305.63598     -3012.1971      2116.9374      3659.9543     -2.4184188    
    895000   302.66604     -3025.6928      2116.8981      3602.1551     -17.396926    
    900000   298.1243      -3009.1957      2077.8777      3511.9416      29.765717    
    905000   300.14253     -3015.7895      2148.3758      3605.9257     -2.1410532    
    910000   293.8603      -3023.7919      2060.4073      3416.3241     -1.565633     
    915000   298.40044     -3014.9957      2073.7559      3506.1352      7.0924607    
    920000   299.15939     -2999.3419      2063.1225      3522.4672      27.556117    
    925000   300.6011      -3015.5238      2069.1379      3533.7881      28.900519    
    930000   296.07141     -2977.0955      2092.8835      3528.4511     -5.0265601    
    935000   301.58023     -2940.0766      2102.7707      3657.461       40.508883    
    940000   296.17314     -2968.265       2137.5608      3583.4751     -20.287404    
    945000   296.52701     -2997.4183      2057.3999      3479.4351     -1.7171035    
    950000   296.41429     -2994.4499      2131.271       3554.5946      13.736562    
    955000   290.80199     -2984.0133      2127.7102      3477.8244      3.4435852    
    960000   294.81293     -2948.6027      2098.191       3543.4951      32.226983    
    965000   301.34216     -2983.5497      2131.512       3639.1809      7.7085497    
    970000   294.59094     -2959.238       2078.1883      3509.5485      16.676376    
    975000   301.87588     -2957.3648      2165.4454      3707.2539      3.3777444    
    980000   301.09676     -2986.3557      2118.5241      3619.7296      8.1327603    
    985000   294.25668     -2985.4277      2090.1463      3490.3349      20.630506    
    990000   302.67019     -2993.3392      2111.8684      3629.5409     -9.3915587    
    995000   304.69943     -2975.0559      2030.3948      3596.5945      24.28184     
   1000000   308.9462      -2957.4966      2146.2802      3793.3332      10.052844    
   1005000   296.99842     -2959.5243      2119.1289      3586.084      -2.9164822    
   1010000   293.49141     -2980.4493      2080.6626      3474.424       17.786197    
   1015000   299.23177     -3006.29        2149.755       3603.2304      6.9444554    
   1020000   299.44537     -2968.4603      2105.2473      3599.7358     -1.194352     
   1025000   301.69747     -2923.0378      2141.7027      3715.1791     -17.131716    
   1030000   300.80629     -2902.9259      2189.9628      3770.269       7.547747     
   1035000   296.0133      -2883.4765      2158.4048      3686.7254      31.856005    
   1040000   297.83626     -2953.4253      2162.8396      3648.3808      8.9536569    
   1045000   300.17658     -2963.434       2099.0515      3609.4644      19.29813     
   1050000   303.28341     -2946.6644      2101.5073      3674.9941     -6.728167     
   1055000   301.67455     -2989.8061      2178.3355      3684.7021     -17.760347    
   1060000   297.46519     -2955.8523      2185.6808      3663.2646      21.718707    
   1065000   308.36829     -2969.1388      2139.4418      3766.2395      2.0030078    
   1070000   302.16873     -2959.142       2161.59        3705.9858      3.1185169    
   1075000   301.52025     -2947.0725      2144.1392      3690.9396      11.132593    
   1080000   303.20502     -2941.6176      2066.4791      3643.8444      8.1725395    
   1085000   294.58984     -2950.952       2081.6119      3521.2416      7.398829     
   1090000   296.02538     -2968.5751      2098.668       3542.0701      4.573774     
   1095000   299.53547     -2955.7992      2145.7036      3654.1961      12.901192    
   1100000   295.39718     -2985.6842      2134.4928      3551.423       15.156824    
   1105000   301.63614     -2961.6892      2153.662       3687.573       32.322812    
   1110000   300.96858     -2993.7144      2096.6619      3588.5984     -18.839941    
   1115000   300.59304     -2994.5739      2094.1313      3579.6111      22.673453    
   1120000   297.76854     -2978.8287      2121.4136      3580.5423      16.102214    
   1125000   303.97685     -3011.8952      2080.5872      3599.1783      21.345109    
   1130000   300.92567     -2978.859       2045.5141      3551.6664      12.982764    
   1135000   296.41112     -2953.0738      2092.8024      3557.4549     -9.3087933    
   1140000   296.38304     -3024.5325      2135.3859      3528.1611      16.963434    
   1145000   307.65732     -2982.6266      2118.9107      3721.6243      22.665493    
   1150000   304.46728     -2958.9707      2103.3359      3682.1609     -20.674199    
   1155000   301.36378     -3013.8975      2122.618       3600.2615      21.053526    
   1160000   297.41322     -3044.6935      2137.3208      3525.2888      23.312944    
   1165000   305.00219     -3012.2186      2125.6442      3659.1936      22.573184    
   1170000   302.52384     -3000.081       2138.6171      3647.3667      20.896046    
   1175000   298.71828     -2997.5857      2100.3005      3554.8271     -1.4781511    
   1180000   304.59476     -2982.8131      2120.2173      3677.0998      6.7850809    
   1185000   297.5813      -3014.2768      2142.0351      3562.925       1.0435408    
   1190000   293.89396     -3007.4454      2152.9782      3525.7431      10.405789    
   1195000   305.16088     -3003.7539      2066.6475      3611.0267     -11.552185    
   1200000   301.68298     -3000.0404      2148.675       3644.9329      26.784177    
   1205000   295.66146     -2995.401       2109.9767      3521.129       27.869456    
   1210000   299.1763      -2982.4093      2134.5709      3611.1002      3.224759     
   1215000   306.31149     -2977.8404      2089.4822      3676.9236      0.65731632   
   1220000   301.12742     -2964.8097      2150.8339      3674.0424     -0.53888057   
   1225000   302.53465     -2996.0616      2081.0319      3593.9619      24.403767    
   1230000   299.64883     -3007.1884      2119.3583      3578.1511      17.463507    
   1235000   293.22572     -3021.1922      2115.5716      3464.6302      7.2628246    
   1240000   302.36629     -3034.6021      2112.7126      3584.5929      18.02925     
   1245000   305.88763     -3023.8089      2103.4239      3638.5796      27.610019    
   1250000   299.1051      -2996.4714      2116.454       3577.86        5.4206096    
   1255000   303.16943     -2985.3487      2113.417       3646.5207      18.872929    
   1260000   293.49        -2978.759       2139.4873      3534.9179      23.447277    
   1265000   301.09563     -2956.8961      2164.9074      3695.5557      23.450258    
   1270000   304.0352      -2998.9377      2114.5257      3646.9439      11.236591    
   1275000   299.972       -2991.1013      2150.2821      3629.9786     -2.9683689    
   1280000   294.7362      -2990.0906      2132.9541      3535.6266     -13.878062    
   1285000   303.81839     -3009.3516      2088.4957      3607.2686      28.369698    
   1290000   301.67206     -2947.4109      2113.9467      3662.6713      29.830239    
   1295000   305.6055      -3014.7453      2118.5173      3658.5318      13.644041    
   1300000   302.54916     -2974.3542      2131.0695      3665.9231      13.69361     
   1305000   295.71849     -3009.8373      2057.7277      3455.2936      26.010021    
   1310000   297.4113      -2970.0978      2091.1251      3553.6603      20.469045    
   1315000   296.09729     -3013.2825      2059.5764      3459.3428      16.768765    
   1320000   295.67532     -2914.9686      2115.205       3606.9963      21.126393    
   1325000   298.57449     -2959.9415      2093.4443      3583.472       13.230502    
   1330000   305.90178     -2981.4648      2133.4735      3711.1841     -24.20644     
   1335000   295.87349     -2970.7685      2014.5332      3453.4779      40.48568     
   1340000   299.80605     -3015.5157      2156.1538      3608.9625     -3.4929156    
   1345000   300.24407     -3008.3406      2105.0332      3571.5452      6.6219826    
   1350000   303.30216     -3000.5301      2094.4079      3614.3085      5.0731533    
   1355000   302.21454     -2973.6279      2145.8296      3676.4224      12.88504     
   1360000   302.33919     -2920.352       2157.196       3742.9226      28.687083    
   1365000   300.12119     -2959.6075      2115.8913      3629.3051      0.96061442   
   1370000   296.85074     -2964.639       2127.4345      3587.0739     -2.4989886    
   1375000   301.72178     -2943.4951      2144.4796      3697.8611      36.279913    
   1380000   299.87116     -2927.8734      2134.9015      3676.3231      39.672507    
   1385000   295.30391     -2955.7998      2091.0606      3536.4851      30.183538    
   1390000   297.02994     -2938.5807      2158.618       3646.9865      8.3267809    
   1395000   298.8662      -2960.5221      2094.3776      3588.1724      24.545589    
   1400000   297.87827     -2956.6431      2056.2788      3539.2284      18.874734    
   1405000   293.80917     -2954.4711      2139.714       3564.1895      37.993478    
   1410000   303.42167     -2944.7395      2049.5163      3626.9886      24.854416    
   1415000   295.92472     -2933.289       2077.8019      3554.9898     -20.028828    
   1420000   300.13976     -2901.4283      2121.8292      3693.6989     -10.39394     
   1425000   301.35333     -2916.4528      2096.7087      3671.6411     -1.308533     
   1430000   303.25047     -2912.4782      2082.5148      3689.6968      6.6281219    
   1435000   297.37131     -2855.0623      2095.1238      3672.0984      25.496101    
   1440000   302.78065     -2875.0293      2095.9675      3733.5962      9.9229691    
   1445000   300.11473     -2899.4636      2173.7214      3747.1828      21.766811    
   1450000   298.07568     -2911.4821      2113.305       3644.3578      12.744172    
   1455000   299.88341     -2940.2568      2094.1786      3623.3993      1.0940632    
   1460000   297.37301     -2941.3212      2113.544       3604.2852      23.093195    
   1465000   300.5307      -2906.4241      2122.408       3695.1086      16.779166    
   1470000   295.50083     -2896.8065      2128.3627      3635.7154      8.2546199    
   1475000   297.07795     -2929.7026      2083.1221      3581.0841      16.271488    
   1480000   304.06368     -2911.3827      2085.5313      3705.9288      19.88409     
   1485000   295.654       -2906.1562      2137.8077      3638.0936      0.39414508   
   1490000   297.7775      -2890.8809      2131.7867      3678.9967      13.36136     
   1495000   297.53963     -2907.3549      2195.7957      3722.9864      28.321906    
   1500000   301.96591     -2892.2943      2102.2336      3710.4543      13.395737    
   1505000   302.28423     -2894.1505      2054.4709      3665.5798      7.4364199    
   1510000   304.29125     -2892.0809      2054.1789      3697.27       -15.583126    
   1515000   297.34919     -2920.5723      2078.6422      3589.7771     -5.4716943    
   1520000   293.89617     -2931.3372      2129.3547      3578.2608      24.083262    
   1525000   302.95831     -2944.2438      2134.0444      3705.1065      16.783179    
   1530000   299.94661     -2925.3008      2159.1487      3704.2672     -11.532941    
   1535000   300.88158     -2888.7545      2090.1776      3685.7772     -2.7613783    
   1540000   298.07922     -2906.2597      2123.4923      3659.8202     -14.365584    
   1545000   298.97816     -2946.4732      2170.6173      3680.1296      36.301663    
   1550000   298.84019     -2887.9394      2135.1793      3701.1692     -5.8862322    
   1555000   305.30951     -2935.9236      2106.8894      3721.3141      4.3543842    
   1560000   302.40631     -2892.9771      2062.3473      3676.4489      0.38509505   
   1565000   302.19466     -2919.2897      2130.8554      3715.4901     -9.4071758    
   1570000   300.605       -2949.9086      2054.4269      3584.7502      17.713864    
   1575000   305.03712     -2939.0288      2114.0418      3721.3017     -3.6038186    
   1580000   297.92905     -2939.7738      2087.1253      3587.701       20.096936    
   1585000   297.47844     -2920.5042      2032.6847      3545.8142      14.464034    
   1590000   298.77275     -2956.6334      2151.4261      3647.7169      9.8450364    
   1595000   300.39313     -2985.6337      2152.2638      3643.7044      24.997779    
   1600000   300.34694     -2952.6499      2107.2577      3630.9937      22.521858    
   1605000   297.98976     -2959.2966      2105.3991      3587.3568      17.879346    
   1610000   298.44802     -2948.8251      2051.0992      3550.3583     -1.2885394    
   1615000   299.68357     -2981.5461      2119.7721      3604.7251      35.596933    
   1620000   303.68792     -2933.2134      2116.9418      3709.9084      4.6301399    
   1625000   292.75543     -2944.4889      2082.7828      3501.5355      34.38344     
   1630000   297.08658     -2961.1326      2068.4774      3535.1381      14.880868    
   1635000   306.66809     -2936.1733      2087.4964      3721.9196     -2.7078954    
   1640000   298.22596     -2932.2009      2047.9954      3560.5692     -4.8114637    
   1645000   299.59947     -2969.7864      2096.9811      3592.4403     -8.0604924    
   1650000   301.55839     -2957.6812      2114.1989      3650.959      -3.5606059    
   1655000   307.75954     -2962.1252      2183.7067      3808.4453      21.773383    
   1660000   303.76136     -2943.7495      2113.5545      3697.0797      18.353877    
   1665000   295.78237     -2965.8489      2112.2023      3554.7088      3.1113446    
   1670000   300.51277     -2932.5297      2140.6543      3686.982      -11.203313    
   1675000   303.46862     -2951.9703      2114.2209      3685.1622     -10.85502     
   1680000   296.91843     -2970.8335      2101.1903      3555.644      -3.052034     
   1685000   300.99653     -2939.2287      2084.6485      3631.4872      34.355298    
   1690000   295.32786     -2968.7113      2133.8309      3566.7009      21.729353    
   1695000   299.97954     -2891.3825      2100.5123      3680.04        15.294305    
   1700000   302.99516     -2966.1326      2120.8898      3670.6124      38.414572    
   1705000   302.3377      -2935.7445      2103.3928      3673.7046      11.619614    
   1710000   297.68343     -2924.2692      2137.7605      3650.1801     -4.646615     
   1715000   299.17872     -2962.609       2135.9461      3632.3118      29.327448    
   1720000   308.76618     -2976.8486      2063.2934      3688.3114      20.241218    
   1725000   301.22652     -2968.3113      2103.0823      3624.2662     -2.2290567    
   1730000   299.35533     -2973.1609      2144.4115      3632.8575      9.5386349    
   1735000   303.87328     -2983.2827      2189.1965      3734.8564      9.8885518    
   1740000   302.08406     -2947.4109      2083.5012      3638.3663      5.5542885    
   1745000   305.695       -2987.8235      2111.6657      3679.9358     -4.6930718    
   1750000   299.18846     -2969.9071      2074.0552      3563.268       7.538326     
   1755000   294.68814     -2944.4397      2058.1151      3505.7221      25.318646    
   1760000   302.01463     -2946.8368      2084.2699      3638.6743      14.188538    
   1765000   297.85749     -2965.4756      2108.196       3582.0034      10.977736    
   1770000   295.59047     -3015.5664      2119.1181      3509.0469      25.949445    
   1775000   299.61186     -3002.8116      2121.1711      3583.7897     -7.8056633    
   1780000   298.57142     -2977.3286      2135.8815      3608.4763      3.4198976    
   1785000   305.51555     -3006.7096      2171.0303      3717.7397      17.959857    
   1790000   302.1228      -2946.8385      2104.9414      3660.9563      1.9877972    
   1795000   308.01803     -2963.5092      2166.6933      3793.9003      3.0255454    
   1800000   308.01727     -2948.2621      2078.4803      3720.9231      12.456117    
   1805000   306.42554     -2916.8486      2130.8402      3780.9734     -8.5813686    
   1810000   300.45493     -2954.7869      2076.9287      3600.1372      4.3824287    
   1815000   308.11411     -2936.7237      2141.0826      3796.5072      19.245805    
   1820000   300.49778     -2965.2037      2083.024       3596.4544      26.917784    
   1825000   300.08997     -2949.7658      2171.2263      3694.0166      26.112847    
   1830000   300.79997     -2935.0323      2050.9408      3599.0464      10.216009    
   1835000   297.06705     -2988.7838      2153.9699      3592.6883      22.792572    
   1840000   293.86539     -2982.5037      2062.3508      3459.6316      6.3084662    
   1845000   302.59383     -2936.9742      2092.1863      3665.0858      10.355046    
   1850000   299.0564      -3002.2655      2129.6714      3584.5576      1.6822119    
   1855000   294.8772      -2941.6994      2086.7127      3539.878       11.458449    
   1860000   295.19244     -3003.0278      2090.4071      3486.9422      17.21002     
   1865000   305.54258     -2968.7833      2165.6231      3750.6617      4.1511267    
   1870000   299.87001     -2948.1509      2131.2602      3652.387      -9.8846304    
   1875000   301.28329     -2905.5537      2090.7401      3675.5277      34.234711    
   1880000   299.49764     -2910.061       2094.7747      3648.4416      27.165355    
   1885000   300.41937     -2923.584       2142.7784      3696.6598      23.846212    
   1890000   307.9699      -2880.4302      2103.8045      3813.3731      2.0604328    
   1895000   301.38977     -2911.0463      2154.0986      3734.9805      41.091685    
   1900000   302.35573     -2907.5599      2101.3648      3700.1299      9.0758301    
   1905000   296.54433     -2919.508       2110.6097      3610.8133      12.479332    
   1910000   296.9468      -2935.827       2103.2897      3593.1728     -16.105896    
   1915000   305.20581     -2966.0327      2094.4307      3677.2008     -11.420177    
   1920000   300.22732     -2903.2124      2088.4697      3659.8604      7.2326798    
   1925000   306.31877     -2937.1392      2125.0619      3753.313       8.498813     
   1930000   309.16153     -2927.9444      2157.1126      3836.9272      0.92272149   
   1935000   297.6554      -2976.9805      2106.2079      3565.4985      1.3035509    
   1940000   304.36553     -2949.7885      2142.7872      3729.2779      6.5143209    
   1945000   301.9258      -2954.4728      2078.9646      3624.409      -2.4397549    
   1950000   300.94451     -2946.2156      2116.144       3655.2205      0.34569833   
   1955000   300.80652     -2962.9174      2096.4129      3616.731       5.8000304    
   1960000   295.20803     -2965.1948      2105.7971      3540.3975      7.6387506    
   1965000   299.21748     -2946.4986      2136.9667      3650.0205      19.290058    
   1970000   299.67396     -2935.4792      2132.9133      3663.7899      13.583613    
   1975000   290.96776     -2913.9135      2144.742       3567.4267      11.841608    
   1980000   295.12819     -2962.729       2076.6034      3512.4798      12.187266    
   1985000   301.10464     -2915.3725      2073.7927      3646.0989      20.61858     
   1990000   300.3929      -2902.813       2118.2325      3692.4904     -3.3832947    
   1995000   297.86367     -2921.4158      2067.3645      3585.3239      35.224523    
   2000000   302.25565     -2909.2507      2093.5978      3689.1805      10.203022    
   2005000   305.80705     -2904.4038      2099.3136      3752.6735     -18.83746     
   2010000   308.29796     -2929.2117      2033.0604      3698.737       11.061638    
   2015000   302.98459     -2935.1979      2045.8035      3626.3031     -18.814748    
   2020000   305.64779     -2942.2895      2082.5358      3695.6363      11.343991    
   2025000   301.17225     -2941.0307      2127.8947      3675.5503     -15.905029    
   2030000   299.54816     -2948.0543      2032.1958      3548.6224      23.301153    
   2035000   306.6184      -2964.6889      2103.3595      3708.5267      50.599373    
   2040000   307.45122     -2950.7113      2122.5871      3754.1442      3.707115     
   2045000   297.93291     -2933.9349      2121.5545      3628.0267      19.057536    
   2050000   301.22237     -2964.5077      2147.3424      3672.2679      15.126554    
   2055000   301.06372     -2963.3202      2084.685       3608.4336     -8.6176669    
   2060000   298.75467     -2922.6426      2049.5376      3579.5496      19.161328    
   2065000   300.06562     -2936.131       2122.4586      3658.5208      13.224589    
   2070000   303.14717     -2954.3804      2174.3607      3738.1009      19.834828    
   2075000   300.00509     -2953.3132      2104.5766      3622.5543     -18.047601    
   2080000   306.58104     -2930.5373      2090.5003      3729.2622     -5.0684743    
   2085000   297.77784     -2965.8637      2117.6391      3589.8713      29.983068    
   2090000   302.48935     -2934.1909      2065.0589      3639.1844      19.952336    
   2095000   296.20795     -2971.1956      2119.4626      3562.9651     -10.955518    
   2100000   299.85029     -2949.6004      2094.395       3613.7785      25.524722    
   2105000   294.03693     -2954.9051      2110.1631      3537.5992     -0.83870471   
   2110000   303.30372     -2947.4959      2125.4679      3698.4258      4.0934564    
   2115000   296.92512     -2962.2844      2098.37        3561.4725      19.345703    
   2120000   301.68461     -2955.0068      2080.3209      3621.6367      17.256938    
   2125000   292.4646      -2971.232       2117.9753      3505.6504     -0.63249652   
   2130000   308.42675     -2936.2527      2095.3104      3755.8654      8.4141867    
   2135000   301.6511      -2920.1151      2102.1706      3677.8786      16.029971    
   2140000   304.72791     -2972.295       2145.8412      3715.2262      1.886805     
   2145000   297.5905      -2962.3926      2144.6087      3617.5199      8.8769901    
   2150000   302.25769     -2963.7781      2114.6216      3655.7072      13.703938    
   2155000   300.42297     -2986.8967      2148.9026      3639.5249      7.3231164    
   2160000   301.48551     -2987.3686      2074.2905      3580.277       23.169066    
   2165000   293.81855     -2956.7741      2084.6839      3506.9962      20.115909    
   2170000   297.24922     -2929.4935      2125.4928      3626.2167     -9.0315313    
   2175000   294.50328     -2951.7027      2116.6844      3554.2733      14.671233    
   2180000   301.65569     -2970.9174      2143.3153      3668.2893      12.205269    
   2185000   298.36585     -2997.4901      2173.0123      3622.3818     -7.154172     
   2190000   299.77717     -2992.6718      2082.3541      3557.5764      15.176341    
   2195000   299.50666     -2985.1649      2130.7057      3609.4032      12.406676    
   2200000   303.31923     -2966.4114      2117.5167      3671.7903      3.2872624    
   2205000   301.9103      -2968.3125      2156.3165      3687.6903      25.142037    
   2210000   295.40118     -2972.0249      2151.5318      3582.1809      9.9929097    
   2215000   300.94392     -2981.7158      2108.6004      3612.1679      18.917683    
   2220000   294.06536     -2963.4643      2107.6442      3526.9449      39.726399    
   2225000   302.70104     -2960.5378      2077.3322      3628.2659      21.155755    
   2230000   295.57849     -2953.985       2151.9096      3603.2412      17.021926    
   2235000   290.41525     -3029.7657      2179.7597      3478.3575      21.229999    
   2240000   297.22235     -3005.0595      2105.1903      3529.9478      2.7148039    
   2245000   297.77152     -3019.9642      2085.8161      3503.8536      14.770246    
   2250000   302.99742     -3009.6243      2115.0929      3621.3574      5.5193653    
   2255000   301.97609     -2992.652       2089.711       3597.7258      8.6168676    
   2260000   295.66922     -2994.6452      2174.2531      3586.2768      9.9594713    
   2265000   293.63309     -2984.7514      2115.8723      3507.4431      14.630277    
   2270000   301.3205      -2996.0433      2122.5483      3617.4009     -3.3928868    
   2275000   301.86495     -3009.0523      2098.3735      3588.3317     -9.7030182    
   2280000   296.11041     -2997.2911      2086.5332      3502.4865      12.265322    
   2285000   300.88833     -2970.1049      2112.3204      3626.6703      17.180438    
   2290000   297.94552     -2967.4816      2110.5206      3583.634       35.231004    
   2295000   290.05099     -2954.4515      2150.7463      3519.2293     -8.37029      
   2300000   301.15656     -2943.699       2054.6758      3599.4293      33.437963    
   2305000   302.11705     -2943.124       2081.7566      3641.4004      20.303345    
   2310000   301.55452     -2927.7515      2112.7993      3679.4315      4.3139589    
   2315000   301.29955     -2954.2134      2092.9046      3629.2748      12.395718    
   2320000   305.37233     -2926.0616      2121.1372      3746.3601     -3.4561815    
   2325000   298.30618     -2974.2946      2114.4253      3586.101       7.6782599    
   2330000   300.83162     -3002.255       2095.8373      3577.1919      8.3496208    
   2335000   300.87819     -2969.0287      2119.5031      3634.7781     -6.1534813    
   2340000   301.65176     -2949.547       2162.5054      3708.7913      10.988889    
   2345000   299.50621     -2934.1312      2150.504       3680.2284     -5.1310974    
   2350000   300.00608     -2930.2243      2130.5252      3671.6066      26.454078    
   2355000   300.81191     -2957.5486      2092.2373      3618.0046      13.089193    
   2360000   299.00356     -2944.503       2085.477       3597.338      -7.0656278    
   2365000   299.78659     -2934.7118      2092.4224      3625.745       27.723399    
   2370000   292.43375     -2955.5244      2098.6654      3501.5883     -16.004411    
   2375000   298.15785     -2937.3443      2115.338       3621.7533      7.509863     
   2380000   302.95593     -2890.8034      2067.4015      3691.8685      43.277151    
   2385000   298.06306     -2906.9826      2141.2374      3676.6016     -5.5052778    
   2390000   301.93378     -2886.189       2126.6148      3740.462       7.0121844    
   2395000   294.33752     -2941.7709      2088.4536      3533.5039      6.9398879    
   2400000   301.73208     -2929.518       2034.5264      3602.0385      1.95309      
   2405000   297.741       -2911.6899      2116.5523      3642.4092     -17.323321    
   2410000   294.09792     -2963.2165      2065.1772      3485.2109      36.666047    
   2415000   298.51989     -2977.1741      2032.945       3504.9263      3.7751801    
   2420000   295.82887     -2923.9967      2055.2492      3540.3009      35.879415    
   2425000   300.23352     -2924.6861      2139.6561      3689.6655     -0.31377405   
   2430000   297.94505     -2953.0467      2113.0618      3600.6031     -8.4682161    
   2435000   295.8236      -2957.8497      2057.4825      3508.6025      27.976237    
   2440000   300.58621     -2941.1945      2082.6936      3621.451       28.927603    
   2445000   300.71247     -2983.9049      2179.8731      3677.8019      14.678156    
   2450000   294.85223     -2987.6986      2100.2183      3507.0121      23.029439    
   2455000   306.54366     -2934.7859      2075.1946      3709.1509      10.324737    
   2460000   300.35593     -2934.4669      2114.3041      3656.3571      17.282339    
   2465000   295.39176     -2962.0128      2118.8666      3559.3875     -0.56925273   
   2470000   295.96517     -2933.9177      2100.6556      3577.8177     -12.612226    
   2475000   305.36424     -2904.4029      2155.5514      3802.3125      29.283805    
   2480000   303.47166     -2911.9376      2150.8822      3761.9015      4.0359427    
   2485000   302.84916     -2937.9488      2092.2967      3668.0269      0.080245324  
   2490000   298.39728     -2899.1472      2079.7635      3627.9444      26.0168      
   2495000   296.36282     -2946.6482      2160.2046      3630.5628     -20.316838    
   2500000   296.50787     -2909.4313      2147.309       3657.0459     -3.4803366    
   2505000   298.36895     -2921.8478      2090.6081      3615.6661     -4.6682945    
   2510000   301.38071     -2908.1774      2140.9016      3724.5174      25.258564    
   2515000   294.12277     -2911.4883      2081.7991      3553.9313      22.288813    
   2520000   298.92709     -2869.9927      2171.7259      3756.9575     -12.643154    
   2525000   304.95468     -2919.6726      2230.9229      3856.3102      8.9211504    
   2530000   302.67524     -2909.0385      2057.5295      3659.5779      9.1375501    
   2535000   298.92112     -2918.8306      2140.3736      3676.6784      1.683331     
   2540000   303.48888     -2918.6525      2086.299       3690.86        29.169793    
   2545000   297.4622      -2950.881       2131.3022      3613.8129      10.391878    
   2550000   295.92336     -2910.4986      2126.5031      3626.4613      15.038055    
   2555000   296.01277     -2933.2888      2172.3079      3650.8083      6.1224723    
   2560000   298.45668     -2927.5444      2133.151       3653.8199      27.268116    
   2565000   297.91745     -2900.9998      2175.809       3714.9858      16.055788    
   2570000   300.42817     -2885.5772      2109.8377      3701.857       2.4888101    
   2575000   294.44274     -2886.3574      2108.6011      3610.6331      31.40344     
   2580000   296.61061     -2905.1926      2113.6764      3629.1831     -3.6658053    
   2585000   296.29664     -2924.6928      2139.3208      3630.6481      8.1884883    
   2590000   292.90902     -2916.0886      2127.3089      3576.751       22.142748    
   2595000   304.94247     -2911.466       2132.0665      3765.4783      29.635354    
   2600000   300.37927     -2902.1845      2106.0071      3680.6903      25.442658    
   2605000   303.84204     -2891.2108      2086.7663      3724.0326      11.243216    
   2610000   303.0223      -2953.2824      2137.7686      3700.7458      12.618421    
   2615000   302.49818     -2915.8264      2059.5083      3652.1299     -7.7536109    
   2620000   297.61259     -2897.86        2197.509       3735.282       22.721784    
   2625000   304.82249     -2879.2481      2120.8504      3784.6919      6.1960116    
   2630000   302.15619     -2889.6826      2162.3817      3776.0502     -3.7628813    
   2635000   294.47262     -2885.6569      2059.3051      3562.483       10.033408    
   2640000   304.33984     -2897.2147      2090.2315      3728.913       9.3485302    
   2645000   298.35746     -2908.1677      2126.7181      3665.2849      14.051064    
   2650000   300.75469     -2893.5222      2138.2455      3727.1862     -4.8894326    
   2655000   303.76706     -2916.5715      2134.9784      3745.7665      8.3523238    
   2660000   301.33949     -2900.4522      2131.1125      3721.8392     -2.1395843    
   2665000   299.94435     -2866.9604      2129.0068      3732.432       8.1460117    
   2670000   297.44261     -2909.7809      2120.9918      3644.3105     -1.4967885    
   2675000   298.90405     -2931.056       2076.5245      3600.3495      26.957142    
   2680000   306.17441     -2884.3166      2092.4133      3771.3355     -3.1860517    
   2685000   302.19566     -2947.3834      2194.7405      3751.2964     -14.221909    
   2690000   294.39194     -2907.4467      2100.5592      3580.7448      36.735729    
   2695000   301.93939     -2894.6386      2147.0433      3752.5245      10.972161    
   2700000   300.93737     -2920.5565      2112.1279      3676.757       31.456528    
   2705000   302.44608     -2933.6377      2086.7178      3660.7517      0.25188643   
   2710000   299.34051     -2927.6534      2111.9445      3645.677       30.84276     
   2715000   301.43901     -2917.5561      2152.4362      3727.5422     -8.8937994    
   2720000   304.55234     -2931.3876      2055.5308      3663.2066      13.149498    
   2725000   302.63648     -2911.5485      2125.9308      3724.8915      14.136812    
   2730000   301.16422     -2941.2076      2104.5699      3651.9289      7.7326551    
   2735000   304.60512     -2933.9967      2123.1625      3729.0159      3.2468689    
   2740000   307.15399     -2926.5148      2161.158       3812.4817      13.35644     
   2745000   293.59025     -2946.8059      2171.446       3600.3239      5.8340074    
   2750000   305.74692     -2939.156       2156.6849      3774.3964      3.5037761    
   2755000   297.85108     -2943.1315      2082.9413      3578.9972     -4.1916848    
   2760000   293.94284     -2966.3984      2116.3702      3530.9106      9.2286051    
   2765000   296.48901     -2951.3853      2102.642       3570.1438      11.232854    
   2770000   299.91493     -2937.1984      2046.8633      3579.612       10.851499    
   2775000   300.41653     -2958.2107      2078.289       3597.5014      9.7679252    
   2780000   303.93123     -2960.5343      2125.5077      3694.7797      14.451613    
   2785000   294.64992     -2968.0964      2071.905       3495.2858      20.116584    
   2790000   307.12883     -2969.6055      2131.2572      3739.1152      28.44317     
   2795000   298.71325     -2969.1972      2106.0727      3588.9128      37.619552    
   2800000   294.73237     -2973.5171      2027.242       3446.4309      44.934469    
   2805000   300.22096     -2948.873       2090.9176      3616.5529     -0.25511213   
   2810000   303.71555     -2938.8067      2159.387       3747.1721     -2.2281698    
   2815000   302.65305     -2872.7403      2138.7715      3776.7875      12.267471    
   2820000   299.16935     -2866.9466      2173.2671      3765.1556     -4.5917973    
   2825000   306.3873      -2871.3648      2116.1837      3811.2306      25.880356    
   2830000   296.42444     -2862.883       2113.8499      3668.8917      34.424064    
   2835000   301.38441     -2862.3793      2128.0871      3757.5561     -19.755012    
   2840000   303.08444     -2846.6241      2119.9957      3790.5574      9.2625175    
   2845000   297.41005     -2893.4424      2095.504       3634.6759      12.590901    
   2850000   302.2233      -2864.8729      2149.2959      3788.7743      17.841105    
   2855000   301.55645     -2930.9288      2103.834       3667.3177      12.414151    
   2860000   303.72456     -2920.8352      2054.2673      3660.1582      36.061133    
   2865000   300.23897     -2912.3915      2114.7057      3677.0908      15.677024    
   2870000   299.85884     -2897.4375      2156.524       3728.1976      13.16465     
   2875000   303.96129     -2895.4227      2077.9603      3712.7919      35.090578    
   2880000   306.69401     -2886.0778      2088.4153      3773.3205      5.1041604    
   2885000   301.06995     -2903.8677      2089.5601      3672.8541      21.658996    
   2890000   301.15319     -2932.9175      2091.8566      3647.3414      14.227993    
   2895000   299.16436     -2896.2238      2154.9285      3717.4654     -11.516356    
   2900000   291.99544     -2896.9923      2119.9964      3574.9188      10.840947    
   2905000   300.11515     -2919.3733      2078.3591      3631.9171      25.720152    
   2910000   300.97485     -2896.5372      2056.67        3645.8771      9.1715732    
   2915000   299.38481     -2968.5899      2079.1242      3572.5806      3.9555622    
   2920000   295.40586     -2964.8919      2113.8164      3551.6682     -2.020798     
   2925000   302.95966     -2933.7295      2064.1856      3645.782       14.647771    
   2930000   294.23477     -3004.8384      2114.95        3495.4013     -9.9866199    
   2935000   305.95826     -2967.0936      2175.2103      3768.1339     -7.7041076    
   2940000   296.32096     -2959.5741      2097.2834      3554.0918      4.9770774    
   2945000   296.00357     -2964.8694      2138.1919      3584.9746     -11.734649    
   2950000   300.79143     -2971.0344      2083.3744      3595.3506      8.6444451    
   2955000   301.02157     -2870.5775      2121.6965      3737.5595      19.235453    
   2960000   297.4388      -2931.0418      2090.8749      3592.876       18.952751    
   2965000   305.81621     -2909.5195      2126.6373      3775.0179      15.69821     
   2970000   298.52942     -2958.5165      2096.7235      3587.5046      15.777269    
   2975000   303.88154     -2952.9624      2113.3765      3689.4799      9.1751459    
   2980000   297.80094     -2979.8049      2140.1018      3598.7371      8.2066844    
   2985000   296.81082     -2909.859       2131.4482      3645.2726     -9.5125409    
   2990000   299.14012     -2944.6162      2166.7909      3680.574       12.59684     
   2995000   299.20553     -2975.2254      2119.996       3604.1448      7.6727646    
   3000000   303.11016     -2915.6348      2123.6743      3725.6086      32.279029    
   3005000   300.77764     -2936.4393      2102.1862      3648.5519      4.0590937    
   3010000   297.05625     -2931.5024      2063.5148      3559.3536      20.005183    
   3015000   303.82005     -2950.8175      2158.4956      3735.8274      40.552201    
   3020000   301.64631     -2924.2532      2135.3481      3706.8466      7.6883545    
   3025000   305.09512     -2938.9161      2114.9423      3723.1792      26.885314    
   3030000   300.75073     -2922.9794      2092.7437      3652.1682      22.701543    
   3035000   306.97209     -2998.5119      2092.1301      3668.7457     -0.3129569    
   3040000   304.8838      -2988.6642      2097.5766      3652.9158      19.219329    
   3045000   294.00687     -3004.7943      2045.1096      3422.2085      5.8726481    
   3050000   296.64482     -2993.5192      2135.4142      3563.1043     -9.3722222    
   3055000   300.12492     -2976.1139      2190.5889      3687.5519      3.7847957    
   3060000   300.31986     -2959.4561      2106.3394      3622.8656      15.05479     
   3065000   307.7693      -2940.8974      2191.0529      3837.1647      10.400574    
   3070000   294.4475      -2895.9546      2103.5619      3596.0677     -0.96910367   
   3075000   301.14082     -2923.3731      2190.6814      3755.5262     -13.206915    
   3080000   305.28017     -2900.367       2164.4655      3814.0094      35.318821    
   3085000   295.41322     -2926.882       2063.8753      3539.8468     -6.7282518    
   3090000   298.31039     -2906.2484      2074.8474      3614.6321      5.7472801    
   3095000   301.53353     -2926.25        2097.3858      3665.2066     -1.3970998    
   3100000   306.15955     -2893.4919      2160.0972      3829.6225      37.941258    
   3105000   298.72282     -2901.7985      2128.515       3678.8964     -5.79171      
   3110000   299.4739      -2921.3561      2172.9216      3714.9396      7.9728308    
   3115000   297.02509     -2934.5952      2096.2511      3588.5328      11.793522    
   3120000   299.46681     -2957.3897      2167.8588      3673.7375      12.082126    
   3125000   300.97077     -2904.3922      2094.4771      3675.7684     -5.1625853    
   3130000   296.37209     -2954.686       2137.25        3599.7086      3.951916     
   3135000   301.78452     -2947.6975      2151.9215      3702.0356      16.491595    
   3140000   302.10419     -2962.5022      2085.3288      3625.4026      12.231267    
   3145000   303.73945     -2965.2183      2141.0658      3702.7956      25.734178    
   3150000   298.75643     -2951.2567      2066.9539      3568.3781      16.162912    
   3155000   298.95272     -2991.2012      2104.4613      3568.8665     -1.4690554    
   3160000   301.20809     -2986.9196      2058.6712      3560.9721      8.8519003    
   3165000   303.23513     -2977.2818      2164.9261      3707.0759     -10.270745    
   3170000   298.52399     -2993.4925      2161.1906      3616.9147      18.072791    
   3175000   302.81076     -3017.2313      2075.6547      3571.5302      15.816416    
   3180000   300.81368     -3013.5573      2131.0444      3600.8292      12.196356    
   3185000   299.63146     -3029.7354      2149.0989      3585.0858     -13.407249    
   3190000   301.86449     -2998.4866      2131.813       3632.3299      24.866659    
   3195000   306.79038     -3007.8445      2084.0974      3648.6722     -4.4129815    
   3200000   298.95245     -2994.9997      2117.5854      3578.188       16.332804    
   3205000   302.61051     -2999.0974      2165.4398      3676.4646     -16.425156    
   3210000   303.31253     -2980.1535      2066.9269      3607.3586      2.8637757    
   3215000   301.57736     -2997.2702      2079.595       3577.0488      2.6586454    
   3220000   300.10595     -2975.5446      2142.7736      3640.0231      7.2632006    
   3225000   298.10382     -2995.9399      2088.6242      3535.6387      24.549308    
   3230000   299.76484     -2990.1879      2154.469       3631.9913     -0.79379763   
   3235000   298.16707     -2979.422       2068.7721      3533.247       42.044452    
   3240000   297.05751     -2974.8882      2160.0502      3612.522       4.2106655    
   3245000   296.58197     -2964.4616      2081.482       3537.293       1.9387794    
   3250000   305.46401     -2926.0411      2185.2675      3811.8774     -9.8745855    
   3255000   300.38104     -2979.2207      2087.5279      3585.2013      19.128558    
   3260000   298.1012      -2949.0801      2148.5197      3642.3549     -20.165735    
   3265000   297.15661     -3007.1813      2097.9038      3519.5596      5.422247     
   3270000   300.11401     -2937.7705      2143.1215      3678.2653      33.339875    
   3275000   305.05673     -2983.2999      2191.5884      3754.8695      4.3457142    
   3280000   296.70257     -2983.0353      2121.2944      3560.3291      1.7388487    
   3285000   299.92038     -3011.219       2128.724       3587.5334     -2.9098328    
   3290000   303.07922     -2957.1648      2106.0708      3666.014       9.1672632    
   3295000   302.5763      -2936.6166      2088.6583      3661.654       16.995947    
   3300000   301.43962     -2967.2637      2087.9721      3613.3796      24.746182    
   3305000   296.81704     -2959.8037      2112.575       3576.5473      13.986329    
   3310000   293.73731     -2968.366       2067.8219      3477.3315      4.1172076    
   3315000   298.14139     -2950.8888      2100.1018      3592.7272      7.7625586    
   3320000   296.65085     -2943.2482      2082.1471      3560.198       28.61986     
   3325000   297.91147     -2976.3663      2123.7082      3587.4295      18.410732    
   3330000   300.05552     -2957.8224      2142.0097      3656.2299      18.747227    
   3335000   299.49976     -2911.678       2047.5523      3599.6337      15.501447    
   3340000   294.81954     -2911.5252      2124.8626      3607.3427      1.6057087    
   3345000   303.90138     -2921.6903      2126.5179      3734.189       3.2477019    
   3350000   297.38507     -2927.6508      2128.6148      3633.2061     -2.7087759    
   3355000   302.01648     -2992.9872      2102.0543      3610.3359      7.1567453    
   3360000   301.19186     -2938.931       2048.5501      3598.5978      34.825365    
   3365000   300.02331     -2922.2647      2062.1483      3611.446       19.752563    
   3370000   298.62783     -2937.8012      2147.6876      3660.6506      9.314391     
   3375000   304.02601     -2969.2614      2144.756       3706.7135      14.97991     
   3380000   292.53746     -2987.5543      2171.795       3544.2337      11.270845    
   3385000   302.12882     -2923.8262      2127.1587      3706.2756     -2.2645486    
   3390000   296.2298      -2930.4311      2100.3279      3584.9206     -5.1189788    
   3395000   294.45882     -2909.0464      2133.4448      3613.0274      22.191327    
   3400000   303.89371     -2944.2777      2139.4995      3724.469       22.574742    
   3405000   302.11646     -2974.403       2136.2654      3664.6212     -10.10798     
   3410000   299.74055     -2924.1276      2105.0767      3648.2973     -7.199443     
   3415000   293.80693     -2938.8555      2129.324       3569.3818      10.398776    
   3420000   300.57365     -2924.0268      2093.7504      3649.4885      9.59661      
   3425000   296.65958     -2926.2787      2089.1075      3584.2581      11.941259    
   3430000   301.11977     -2946.2288      2100.6577      3642.3332     -10.876361    
   3435000   296.94012     -2933.1717      2124.233       3616.6718      12.502507    
   3440000   300.0157      -2941.8168      2098.3061      3627.9385     -20.99574     
   3445000   302.04172     -2939.2168      2150.6773      3713.1056     -13.81986     
   3450000   308.20133     -2961.3154      2110.5274      3742.6601     -2.3657419    
   3455000   296.01294     -2937.6168      2083.1303      3557.3053      4.5620193    
   3460000   306.06613     -2935.7304      2144.9321      3770.8267      18.090376    
   3465000   299.68808     -2934.5048      2088.6689      3620.7302      10.669471    
   3470000   297.57207     -2934.7973      2178.1381      3678.3698      3.7772433    
   3475000   296.59353     -2945.7853      2101.1729      3575.8325      49.736731    
   3480000   302.58924     -2954.0142      2054.1874      3609.9785      11.60635     
   3485000   298.82175     -2951.2013      2085.4297      3587.8828     -32.228431    
   3490000   298.9801      -3003.2058      2124.8711      3577.6797      42.035869    
   3495000   302.06192     -3004.5061      2107.7857      3605.2257     -4.6358291    
   3500000   298.01317     -3020.6711      2127.1329      3548.065       38.06989     
   3505000   303.16444     -2973.0439      2105.3537      3650.6878      25.324252    
   3510000   297.53126     -3000.3663      2138.2711      3572.3257      1.9902097    
   3515000   299.19224     -2994.082       2108.0662      3573.1603      31.292934    
   3520000   302.05269     -2969.5942      2100.1355      3632.3498      14.923429    
   3525000   298.8546      -2978.4941      2069.378       3545.0279      20.587115    
   3530000   301.39834     -2974.3959      2119.5471      3637.2073      27.383431    
   3535000   296.26238     -3006.9269      2059.3373      3467.9197      9.1859698    
   3540000   301.78054     -3014.5168      2119.674       3602.9095     -17.363776    
   3545000   301.45394     -2999.5593      2118.833       3612.1584      5.8260262    
   3550000   301.41195     -3024.9578      2110.8611      3578.1621      8.7223492    
   3555000   304.19487     -2986.4931      2149.6455      3696.888       19.999596    
   3560000   295.85628     -3006.777       2104.7778      3507.4577     -4.6739313    
   3565000   294.98184     -3003.9252      2087.5417      3480.0407      14.941076    
   3570000   293.62637     -2949.7769      2119.478       3545.9233      18.579599    
   3575000   298.37768     -3002.953       2135.3801      3579.463       5.6944222    
   3580000   300.64483     -3008.5453      2114.2605      3586.5408      5.363014     
   3585000   299.80301     -2980.4328      2121.3685      3609.2148      18.678905    
   3590000   302.67709     -3015.9963      2108.0481      3603.1664     -5.5249473    
   3595000   296.51493     -3003.7808      2132.1541      3547.6467     -2.9897389    
   3600000   302.75666     -3020.0926      2168.9313      3661.1391      2.3139761    
   3605000   302.55654     -2994.8745      2107.7814      3622.2248      8.8465915    
   3610000   295.40754     -2993.3443      2123.9216      3533.3461      13.623201    
   3615000   297.22397     -2984.322       2082.1716      3527.6907     -11.277717    
   3620000   301.31629     -2950.7907      2132.4869      3672.5294      1.2462811    
   3625000   300.9256      -2982.0426      2123.8501      3626.8177      1.3361507    
   3630000   296.47924     -2944.3734      2160.7767      3635.1448     -0.24771436   
   3635000   297.20461     -2973.937       2154.6398      3610.2553     -0.23258912   
   3640000   300.32535     -2984.7523      2082.4362      3573.748       5.9137538    
   3645000   305.72626     -3002.6884      2146.3163      3700.1874     -1.0067974    
   3650000   310.57351     -2980.4013      2122.6327      3771.0346      5.8064139    
   3655000   302.23662     -2925.4833      2089.3602      3668.4266     -11.721685    
   3660000   301.87185     -2953.245       2131.5044      3677.3726      16.422097    
   3665000   301.30992     -2963.8595      2071.7049      3598.5836      5.2604269    
   3670000   300.53473     -2939.2029      2082.095       3622.0768      4.0069591    
   3675000   299.58125     -2920.635       2069.3717      3613.7107      16.014983    
   3680000   300.9085      -2896.6113      2112.9285      3701.0725      23.652314    
   3685000   294.86987     -2882.5852      2099.5375      3611.7076     -2.4125506    
   3690000   303.52649     -2928.8573      2145.2509      3740.1677      23.993093    
   3695000   302.55202     -2957.453       2125.7561      3677.5537      9.5209276    
   3700000   296.23379     -2966.2547      2063.0441      3511.8727     -2.42004      
   3705000   295.69804     -2952.4636      2130.3541      3584.9888     -13.369738    
   3710000   302.09757     -2901.0584      2080.4085      3681.8275     -9.6316589    
   3715000   304.22407     -2926.5474      2050.4843      3658.1077      20.192991    
   3720000   301.91887     -2911.156       2147.8377      3736.4957     -5.0714735    
   3725000   302.52736     -2982.0089      2128.0599      3654.934       7.5142692    
   3730000   295.08793     -2942.3784      2156.153       3611.78        19.189038    
   3735000   303.19297     -2959.58        2129.2111      3688.4344      12.669069    
   3740000   305.60865     -2960.1146      2083.6492      3678.3412      13.492133    
   3745000   296.64054     -2959.3624      2107.4242      3569.2073      32.804651    
   3750000   295.1058      -2947.1663      2111.0284      3562.1338      25.31121     
   3755000   302.90593     -2948.1111      2090.4823      3656.8963      13.890437    
   3760000   299.05226     -2913.9291      2116.8003      3659.9611      13.974674    
   3765000   300.49382     -2933.5095      2069.4556      3614.5211      4.7257285    
   3770000   303.36718     -2894.1595      2065.8726      3693.1128      26.170052    
   3775000   298.61804     -2904.4428      2066.7111      3612.8866      8.7939477    
   3780000   298.12242     -2913.1597      2118.9569      3649.0287     -10.479438    
   3785000   301.30929     -2908.1586      2111.3515      3693.9216      5.3007383    
   3790000   301.46        -2915.6056      2133.963       3711.3324     -10.102602    
   3795000   302.6811      -2907.1526      2107.8859      3711.9077      7.8813106    
   3800000   300.60074     -2927.7567      2117.9368      3670.3485      12.109069    
   3805000   300.46227     -2930.0286      2131.1906      3679.2667      1.4038662    
   3810000   304.79464     -2934.8772      2083.1887      3690.9861      24.974564    
   3815000   304.65719     -2980.097       2127.2573      3687.7864      22.292861    
   3820000   303.2911      -2980.859       2116.5881      3655.9949      11.634434    
   3825000   296.26846     -2965.7847      2110.1155      3559.9308     -0.20831107   
   3830000   297.59236     -2976.4366      2147.6181      3606.5131      2.2613513    
   3835000   294.61087     -2950.1434      2189.1032      3629.855      -5.8143709    
   3840000   296.40064     -2998.9208      2172.1438      3590.7931      22.227947    
   3845000   300.74461     -2964.5954      2154.565       3672.2823      21.194439    
   3850000   303.27647     -2934.8938      2147.595       3732.7489      17.597763    
   3855000   298.51496     -2973.4574      2088.8568      3564.4814      0.98268011   
   3860000   304.3844      -2956.5925      2071.4922      3651.4601      25.192749    
   3865000   302.05585     -2939.6069      2126.2992      3688.5479      8.9161746    
   3870000   297.23969     -2963.1622      2082.8495      3549.7625      16.124585    
   3875000   299.14181     -2959.3407      2133.5126      3632.5965      1.8529786    
   3880000   301.31424     -2952.898       2117.2939      3655.1985     -12.781069    
   3885000   296.74937     -2961.0073      2107.4511      3569.2113     -5.5600761    
   3890000   296.43945     -2946.5742      2138.5338      3610.108       7.2799355    
   3895000   300.51778     -2939.5677      2115.5944      3654.9587      3.0276118    
   3900000   293.60046     -2923.6838      2121.8584      3574.0105     -22.444429    
   3905000   293.95164     -2936.9468      2129.142       3573.2653      37.544144    
   3910000   291.11617     -2940.0467      2155.6791      3554.4425     -3.579334     
   3915000   306.9569      -2911.8786      2180.0574      3843.08        3.1665518    
   3920000   304.12632     -2900.9178      2121.5571      3753.3533      0.20594501   
   3925000   302.57011     -2881.295       2098.7905      3727.0156      24.06644     
   3930000   302.15066     -2853.6599      2090.2759      3739.8847     -11.288087    
   3935000   301.06449     -2862.8366      2124.5269      3748.7706      27.848851    
   3940000   300.33464     -2907.3552      2127.2529      3696.1003     -7.6822529    
   3945000   292.7397      -2921.935       2127.5314      3568.6036     -11.813604    
   3950000   304.26516     -2895.86        2109.5719      3748.4951      16.683735    
   3955000   301.40132     -2926.5412      2105.2392      3670.7983      33.982518    
   3960000   299.99536     -2931.9603      2099.8192      3639.0049      5.30024      
   3965000   302.56675     -2932.633       2060.5043      3637.3414      19.47114     
   3970000   302.56202     -2921.7706      2129.7728      3717.4017      5.7299953    
   3975000   298.50215     -2952.3251      2103.0027      3599.5686     -12.970533    
   3980000   302.85435     -2898.39        2101.8081      3717.1745      12.044967    
   3985000   299.00537     -2966.666       2096.2579      3585.983       9.6989463    
   3990000   303.49478     -2986.775       2125.4528      3661.9792      25.525108    
   3995000   302.34524     -2976.2278      2056.8357      3586.7764      2.8718794    
   4000000   303.42065     -2953.631       2074.5586      3643.1243      20.93272     
   4005000   297.58956     -2936.1336      2067.2054      3566.3616      17.814088    
   4010000   300.30735     -2956.4692      2139.6053      3658.9319      35.181487    
   4015000   304.95098     -2966.8324      2110.0222      3688.1945      33.837906    
   4020000   298.46663     -2994.0306      2089.9222      3544.2533      13.595856    
   4025000   299.27986     -3025.5587      2049.9364      3484.8597      19.110297    
   4030000   292.78706     -2986.3695      2135.5386      3512.8822      14.781978    
   4035000   297.82163     -2985.9008      2097.2298      3550.0775      16.566136    
   4040000   297.39974     -2952.9993      2156.0449      3635.5062      27.749337    
   4045000   299.81165     -2978.4506      2098.7541      3588.7114      13.883783    
   4050000   302.7175      -2965.87        2154.3756      3700.2224      40.051473    
   4055000   299.77407     -2957.446       2141.591       3651.9928      3.8226477    
   4060000   291.17517     -2943.4045      2065.277       3461.5619      17.477883    
   4065000   296.26236     -2984.9786      2126.3098      3556.8404      30.501566    
   4070000   302.11695     -2965.8062      2025.442       3562.402       1.0235902    
   4075000   302.76129     -2914.0759      2106.6315      3704.9251      1.6025728    
   4080000   302.78344     -2914.2307      2108.4363      3706.9052      45.942647    
   4085000   300.93851     -2910.0133      2098.7384      3673.9277      7.3913514    
   4090000   304.99        -2855.7985      2117.8053      3807.5931     -17.273058    
   4095000   301.29745     -2871.6792      2160.2536      3779.1266      12.398368    
   4100000   300.90122     -2833.1819      2103.9303      3755.3953      18.042118    
   4105000   299.75025     -2859.0659      2105.9429      3714.3699      52.768899    
   4110000   300.85904     -2844.4651      2077.6184      3717.1716      8.264504     
   4115000   302.59496     -2867.757       2106.9472      3749.0807      20.085699    
   4120000   301.03329     -2913.1899      2097.2231      3670.6484     -15.660231    
   4125000   301.08582     -2857.3568      2086.6183      3716.6598      14.888211    
   4130000   299.65782     -2877.9168      2051.0152      3639.2136     -5.0938507    
   4135000   298.44494     -2877.3813      2104.3973      3675.0544      7.7540905    
   4140000   299.63903     -2871.6887      2115.9944      3710.1408      1.7870515    
   4145000   292.70772     -2886.4314      2061.3654      3537.4646      32.634591    
   4150000   298.79493     -2882.7249      2070.4508      3640.9805      12.060263    
   4155000   296.36944     -2866.6762      2126.5825      3677.0114      14.931857    
   4160000   298.41363     -2908.7015      2048.1847      3587.055       31.951441    
   4165000   302.81623     -2874.338       2146.9879      3785.8382      28.480685    
   4170000   305.33326     -2856.4947      2086.459       3780.6666     -9.858405     
   4175000   298.99374     -2862.299       2040.6907      3634.6094      22.917129    
   4180000   301.84988     -2841.557       2111.695       3768.9237     -3.8584176    
   4185000   299.08048     -2849.9431      2141.0805      3748.6479      46.955426    
   4190000   297.51557     -2868.0088      2101.7256      3667.9039     -8.7856215    
   4195000   303.77349     -2872.9849      2079.7067      3734.1771      15.565475    
   4200000   295.04463     -2882.9958      2178.1448      3692.509       16.192111    
   4205000   304.80325     -2902.7423      2108.0073      3748.068       3.4884775    
   4210000   296.64863     -2840.4251      2125.8012      3706.6422      4.9540522    
   4215000   304.94105     -2891.7946      2144.3107      3797.3728      25.356763    
   4220000   294.22726     -2885.6982      2077.6499      3577.1295      14.283271    
   4225000   296.55931     -2864.5109      2172.3132      3727.7372     -12.504789    
   4230000   304.77262     -2843.8301      2139.0398      3837.5562     -21.186135    
   4235000   303.69316     -2830.006       2116.4542      3812.7063      15.089927    
   4240000   297.86301     -2859.1389      2090.0954      3670.3219      34.658558    
   4245000   299.19205     -2865.572       2082.2419      3675.8432     -10.676549    
   4250000   296.69354     -2855.995       2145.7418      3711.6823      25.416123    
   4255000   299.56156     -2869.0348      2187.9194      3783.5651     -0.29101908   
   4260000   297.68824     -2867.7362      2111.3059      3680.3301      15.946658    
   4265000   294.65753     -2875.9839      2133.9664      3649.5731     -0.15331072   
   4270000   302.39635     -2902.0021      2142.6715      3747.5999      33.100365    
   4275000   300.88272     -2902.0286      2123.6105      3705.953       15.161957    
   4280000   299.72167     -2880.8098      2122.1998      3708.4568      25.096529    
   4285000   300.82825     -2908.7926      2096.947       3671.7139     -6.376846     
   4290000   301.43318     -2891.9727      2083.9572      3684.5598      7.5951169    
   4295000   307.73341     -2870.8259      2096.5908      3812.2391      44.590599    
   4300000   299.64934     -2860.7251      2124.3659      3729.6296      6.7305852    
   4305000   303.72421     -2885.9502      2118.7855      3759.5561     -3.0526509    
   4310000   294.27029     -2876.147       2156.0149      3665.6871      24.716003    
   4315000   305.54702     -2896.2588      2131.3963      3789.0256      14.151132    
   4320000   297.56751     -2912.7252      2101.7341      3623.97        9.5772448    
   4325000   303.97457     -2983.3536      2116.6811      3663.7797      9.5198182    
   4330000   298.90237     -2928.2374      2086.6059      3613.2245      15.359743    
   4335000   297.73724     -2933.238       2080.8538      3585.1065     -11.190389    
   4340000   296.90028     -2933.8666      2089.9888      3581.1389     -6.7457677    
   4345000   302.39208     -2932.9114      2079.8956      3653.851       2.959783     
   4350000   300.7489      -2979.3971      2157.9012      3660.8809      7.3553363    
   4355000   304.81206     -2973.1993      2173.2089      3742.9438      10.969689    
   4360000   298.13532     -2936.0876      2107.5785      3614.9147     -5.8903528    
   4365000   296.53951     -2943.1225      2098.7844      3575.3017     -4.0475799    
[...]
   7555000   298.76983     -2931.8717      2077.9277      3598.9366     -4.151828     
   7560000   300.72243     -2958.5845      2162.6034      3686.0012     -10.774764    
   7565000   301.7167      -2985.1156      2115.7524      3627.4377      4.6106124    
   7570000   295.2268      -3007.0015      2167.7196      3560.7932      17.452677    
   7575000   302.26967     -2976.9052      2152.4327      3680.5698      7.0127145    
   7580000   296.53004     -2997.985       2080.084       3501.5977     -13.041446    
   7585000   299.3184      -2993.2949      2119.8679      3587.6295      5.0975093    
   7590000   301.7863      -2952.1731      2165.0091      3710.6743      15.106213    
   7595000   298.23143     -2967.6795      2165.2293      3642.4061      3.0429001    
   7600000   301.38772     -2985.2077      2066.2689      3572.959       51.063566    
   7605000   302.73832     -2971.2881      2074.3732      3615.1122     -2.1368347    
   7610000   292.14948     -3008.7976      2115.0131      3460.426       9.3154644    
   7615000   293.8169      -2995.5896      2105.4587      3488.931       13.470607    
   7620000   300.16063     -2968.2073      2081.4048      3586.8067      8.3683299    
   7625000   296.34329     -3009.2837      2064.3722      3471.8037     -3.3641776    
   7630000   300.97547     -2992.1452      2131.8894      3625.4977     -1.0555387    
   7635000   303.74555     -3005.0561      2076.5581      3598.5409     -9.8125742    
   7640000   303.28922     -3011.8166      2053.9777      3562.3989     -14.74305     
   7645000   297.02604     -3004.8088      2097.7967      3519.8789      14.408506    
   7650000   302.35777     -2948.5448      2127.9712      3685.7818      17.916022    
   7655000   301.59236     -2947.7187      2117.4145      3664.6435      7.9300532    
   7660000   299.77855     -2990.8828      2032.4254      3509.4572      23.696651    
   7665000   300.42068     -2980.5968      2120.437       3617.3251      27.353859    
   7670000   299.0379      -2961.2209      2160.8844      3656.5393     -3.4358191    
   7675000   297.0863      -2956.8722      2113.6519      3584.5689      13.096119    
   7680000   295.90362     -3004.5022      2080.0863      3485.7464      15.062399    
   7685000   290.58376     -2985.4627      2103.3252      3448.7376     -1.7012388    
   7690000   301.55904     -2988.6975      2090.9675      3596.7211     -5.8606918    
   7695000   301.37749     -2988.7742      2108.0198      3610.9908     -3.461238     
   7700000   299.66635     -2974.1831      2055.8075      3547.8667      13.564562    
   7705000   299.32913     -2941.9626      2144.9412      3664.195       1.4544828    
   7710000   303.09281     -2934.5838      2087.2464      3669.9731      8.3399672    
   7715000   299.55637     -2958.2512      2133.5876      3639.9396      7.8698597    
   7720000   301.37363     -2982.9008      2124.7834      3633.5703      17.16309     
   7725000   300.87599     -2984.4657      2097.5735      3597.3787      10.879582    
   7730000   299.95128     -2955.0442      2142.2954      3657.7401      13.261624    
   7735000   304.97542     -2998.8534      2151.1606      3697.6763      4.1026828    
   7740000   303.00208     -3002.3078      2170.0438      3683.6942      7.4727651    
   7745000   297.64952     -2991.1035      2092.1398      3537.2198      14.792821    
   7750000   303.39012     -2970.0083      2119.2435      3670.9768      12.548675    
   7755000   296.15233     -2994.2519      2174.3216      3593.9388      21.85909     
   7760000   298.21231     -2975.6206      2155.511       3624.4617     -4.6597036    
   7765000   299.91304     -2953.7248      2117.4778      3633.6721     -16.543374    
   7770000   295.33775     -2968.4997      2153.3618      3586.5908      7.8664454    
   7775000   298.42358     -2935.2402      2133.9697      3646.4496      15.196489    
   7780000   300.37617     -2899.6901      2137.0181      3714.1496      19.249653    
   7785000   294.06564     -2897.002       2059.8685      3545.6355      7.2326348    
   7790000   304.99021     -2904.0841      2068.902       3710.4073     -6.8025746    
   7795000   300.5605      -2916.4747      2084.2309      3647.3251      3.241541     
   7800000   299.08796     -2936.2485      2094.1033      3615.4767      1.9896119    
   7805000   301.36274     -2906.0774      2120.5883      3706.0363      21.943123    
   7810000   296.88297     -2906.0111      2122.3713      3641.1189      15.574143    
   7815000   295.96369     -2909.3952      2095.527       3597.1895      10.546978    
   7820000   302.94453     -2916.5777      2130.1279      3728.6507      2.161408     
   7825000   306.8941      -2942.905       2138.7753      3769.8353      30.678269    
   7830000   301.32879     -2955.009       2106.1783      3642.1886      6.6543375    
   7835000   302.57953     -2910.0071      2161.0149      3760.6683      34.12559     
   7840000   298.44898     -2924.0471      2119.0974      3643.1488      8.815969     
   7845000   300.48335     -2892.1728      2137.0184      3723.2645      21.041151    
   7850000   303.77231     -2887.9927      2177.021       3816.4661     -4.2399864    
   7855000   301.53176     -2913.1371      2107.4813      3688.3886      9.7116605    
   7860000   301.21074     -2903.6338      2101.2454      3686.8717      22.527441    
   7865000   299.72981     -2958.7721      2120.2581      3628.6741      37.510812    
   7870000   297.91811     -2941.1321      2143.7947      3642.8491     -1.9350892    
   7875000   301.29285     -2919.4041      2105.9697      3677.0493      27.592236    
   7880000   301.90998     -2927.8967      2130.0409      3701.8257      20.547025    
   7885000   304.74561     -2925.806       2080.3208      3696.4587     -10.210787    
   7890000   303.32016     -2921.7583      2078.4428      3677.3834      21.950595    
   7895000   295.00393     -2983.3448      2101.5055      3514.9142     -8.1912005    
   7900000   294.50655     -2951.55        2096.3708      3534.1611      2.8825267    
   7905000   300.60071     -2960.601       2161.2635      3680.8306      0.49261033   
   7910000   294.34848     -2953.2914      2161.4411      3595.1342      2.9111069    
   7915000   295.88596     -2967.9002      2083.3857      3525.3847     -4.1919593    
   7920000   302.09003     -2969.129       2172.1691      3705.4051      18.270622    
   7925000   297.93532     -2987.0237      2099.6724      3553.0916      5.6671541    
   7930000   296.16611     -2990.1416      2119.2999      3543.233       9.4093653    
   7935000   293.68053     -2972.877       2116.6932      3520.8456      10.091763    
   7940000   298.88377     -2981.0903      2099.031       3572.5193      13.203612    
   7945000   301.74329     -2991.0937      2124.8535      3630.957       21.114073    
   7950000   299.6633      -3014.3681      2115.5506      3567.3794      15.958768    
   7955000   295.21372     -3002.5809      2083.6251      3480.9242      6.0205038    
   7960000   304.59052     -3032.0294      2133.8867      3641.4897     -1.0305955    
   7965000   297.34367     -3016.7236      2122.5571      3537.4585     -4.6259322    
   7970000   306.33045     -3014.5704      2060.3972      3611.3911      39.040012    
   7975000   302.59441     -3007.0125      2078.0713      3580.9411     -0.56249555   
   7980000   300.67209     -2975.8855      2129.2795      3634.6259      28.637235    
   7985000   296.25164     -2980.0401      2095.3796      3530.6889      2.446104     
   7990000   297.91597     -2982.2687      2168.413       3626.2989      16.427643    
   7995000   296.23335     -2949.3496      2162.9363      3628.6635      9.4910772    
   8000000   303.42574     -2976.7225      2152.6256      3698.1756      17.964093    
   8005000   301.34867     -2982.309       2077.9837      3586.9904      8.5296318    
   8010000   293.74265     -2958.5507      2171.901       3591.3055      9.3597977    
   8015000   297.80236     -2983.4488      2147.6497      3602.6622      4.6042336    
   8020000   297.79172     -2964.1161      2035.8496      3510.0363     -1.756137     
   8025000   308.51142     -2998.6614      2100.1869      3699.5952      6.3336171    
   8030000   302.64112     -3017.127       2082.1187      3575.5701     -5.0642399    
   8035000   300.41795     -3028.6905      2075.0347      3523.7885      19.973002    
   8040000   296.77385     -3001.256       2124.973       3546.8493      6.3552364    
   8045000   292.80253     -3026.5987      2027.2563      3364.6012      1.1456759    
   8050000   297.95111     -3021.678       2128.5776      3547.5779      25.794063    
   8055000   301.49755     -2994.9125      2122.1062      3620.7284      6.3282963    
   8060000   299.29972     -2971.9148      2148.666       3637.5293      12.215237    
   8065000   306.01494     -2972.9777      2081.2077      3669.092       3.6612623    
   8070000   299.81099     -2986.1832      2087.0568      3569.2717     -6.0687049    
   8075000   302.01418     -2991.5749      2189.374       3699.0336      1.4589457    
   8080000   300.41426     -2971.4529      2104.6875      3610.6239      10.855309    
   8085000   302.01638     -2959.8039      2127.7146      3669.1779     -6.8089113    
   8090000   301.64886     -2958.9747      2139.9235      3676.7386      20.178722    
   8095000   296.36042     -2969.0415      2134.7035      3582.6325      17.367909    
   8100000   304.19177     -2981.2145      2105.5137      3657.9887      15.122312    
   8105000   293.43973     -2998.2877      2138.8581      3514.0108      5.8026009    
   8110000   301.55057     -2948.1991      2056.7088      3602.8346      28.226887    
   8115000   307.25093     -2945.0102      2165.178       3799.4511      18.642206    
   8120000   295.74519     -2958.136       2092.6829      3542.3481     -15.253124    
   8125000   301.79847     -2941.3766      1965.8473      3522.4903      11.351339    
   8130000   300.53541     -2908.1308      2136.4483      3707.5124      7.2703887    
   8135000   295.87371     -2906.7         2159.8839      3662.9005      22.520635    
   8140000   309.82094     -2881.9898      2110.9535      3846.5505      33.377757    
   8145000   304.11853     -2885.5652      2142.2026      3789.2352      10.335809    
   8150000   296.709       -2913.0467      2055.0486      3564.1678      12.97602     
   8155000   293.97348     -2903.4142      2087.9151      3565.8963      27.901907    
   8160000   293.98694     -2882.8939      2191.1787      3689.881      -19.203866    
   8165000   299.409       -2867.933       2119.317       3713.7908      31.059508    
   8170000   299.01661     -2889.9417      2088.6657      3655.2826      19.973556    
   8175000   302.38689     -2907.5038      2227.5831      3826.8687      13.952117    
   8180000   305.55074     -2944.644       2036.6778      3645.9774      24.885494    
   8185000   301.92607     -2899.828       2129.273       3729.3664      13.490351    
   8190000   303.07754     -2903.159       2104.758       3718.6818      0.39004065   
   8195000   302.01687     -2920.8662      2161.5067      3741.9151      4.9136688    
   8200000   303.74211     -2907.5518      2134.5397      3753.9756     -8.086071     
   8205000   302.93768     -2895.4997      2071.7198      3691.2185     -2.8802709    
   8210000   302.01813     -2901.2293      2139.4005      3739.4647      24.99356     
   8215000   297.35458     -2910.0736      2179.7892      3701.5031      16.858389    
   8220000   304.40315     -2934.9631      2131.3204      3733.1971      20.34135     
   8225000   297.35017     -2898.0713      2081.3248      3614.9754      4.6350453    
   8230000   303.42583     -2922.2768      2117.1043      3717.1012      15.660111    
   8235000   293.60646     -2918.4005      2168.953       3626.4779     -5.8529396    
   8240000   301.51152     -2912.9241      2047.8385      3628.6572      27.349169    
   8245000   298.75304     -2973.8471      2196.1674      3674.9506      1.9207166    
   8250000   299.20232     -2938.5244      2177.7828      3698.5848      21.615347    
   8255000   296.97669     -2951.5707      2125.6036      3600.1883      28.134915    
   8260000   305.44298     -2976.4571      2083.8893      3659.7698      19.888445    
   8265000   295.07416     -2964.4311      2070.3616      3503.7306     -1.0358999    
   8270000   305.20064     -2976.1858      2108.4099      3680.9497      2.5926277    
   8275000   301.01581     -2934.5068      2138.8523      3690.7003     -27.035722    
   8280000   297.57727     -2945.834       2111.6127      3600.8853      2.006596     
   8285000   300.88317     -2939.1233      2087.1405      3632.3952     -11.713075    
   8290000   297.81587     -2906.5809      2147.0313      3679.1131     -18.602233    
   8295000   300.0519      -2949.413       2173.539       3696.1146     -0.54312596   
   8300000   305.05266     -2945.4794      2108.5408      3709.5815      28.138837    
   8305000   295.07568     -2923.93        2099.8189      3573.7116     -12.45158     
   8310000   291.11012     -2917.4278      2152.63        3573.922      -3.6689522    
   8315000   301.72471     -2951.9616      2100.1523      3645.1109      10.998118    
   8320000   305.00539     -2918.507       2113.3299      3740.6386      17.347899    
   8325000   295.20335     -2920.3283      2142.3046      3621.702      -3.4696613    
   8330000   295.83189     -2911.6557      2123.8903      3621.3279      16.591513    
   8335000   299.97515     -2919.0467      2086.6504      3638.4485      23.605152    
   8340000   307.99393     -2945.6448      2169.3222      3814.0345      26.351116    
   8345000   298.82575     -2934.0999      2134.4954      3654.1095     -6.2954343    
   8350000   302.27526     -2916.6801      2126.3468      3714.7923      43.102918    
   8355000   302.11704     -2923.2985      2051.2379      3630.707       2.5315123    
   8360000   299.58962     -2917.9327      2168.5212      3715.6873      3.0683717    
   8365000   296.66076     -2905.9774      2179.1242      3694.5936      18.567181    
   8370000   297.60222     -2906.4087      2076.2625      3605.3322      21.482587    
   8375000   305.19465     -2864.909       2136.3882      3820.1156      8.0460424    
   8380000   302.53397     -2885.5293      2084.064       3707.5161      15.643939    
   8385000   302.65504     -2855.8099      2142.7223      3797.6983      10.541281    
   8390000   301.1225      -2845.7623      2125.5582      3767.7407     -3.6368499    
   8395000   302.79505     -2912.1174      2108.8496      3709.6048      12.653312    
   8400000   304.1         -2915.3931      2130.7089      3747.6375     -10.059545    
   8405000   298.59271     -2892.9468      2067.8863      3625.1803     -4.009486     
   8410000   300.51698     -2882.1074      2129.4182      3726.231       8.0663551    
   8415000   298.01363     -2911.9304      2155.062       3684.7417      16.239357    
   8420000   302.38773     -2932.664       2140.4939      3714.6318      20.944572    
   8425000   296.79255     -2915.3275      2104.7153      3612.7989     -3.0705808    
   8430000   302.00942     -2877.5201      2092.6401      3716.2836      2.9905403    
   8435000   304.2361      -2887.023       2066.0969      3713.424       4.984823     
   8440000   300.41629     -2908.9535      2149.4889      3717.9549      8.9770363    
   8445000   296.1649      -2926.9407      2119.622       3606.7377      7.0002929    
   8450000   299.38066     -2929.9762      2078.1623      3610.1705     -3.8425687    
   8455000   295.87706     -2898.7074      2130.5327      3641.5919     -23.496609    
   8460000   294.59007     -2908.8985      2114.1979      3595.8846      14.653647    
   8465000   299.37862     -2932.5421      2099.772       3629.1839      21.708776    
   8470000   298.02472     -2940.1505      2144.6859      3646.3107      19.47361     
   8475000   302.7729      -2940.3881      2112.2432      3684.3975      12.342157    
   8480000   302.17685     -2938.4682      2095.6803      3660.8712      22.09317     
   8485000   297.36417     -2945.389       2213.7155      3700.2571      10.237737    
   8490000   299.28568     -2949.1634      2138.1871      3649.5925      12.033266    
   8495000   297.8253      -2928.3694      2112.6974      3623.1312      11.551779    
   8500000   298.34024     -2893.2512      2182.7536      3735.9803      20.998036    
   8505000   296.13128     -2905.8872      2134.7655      3642.4337      7.2019528    
   8510000   297.74374     -2886.7207      2059.8145      3610.6815      35.274394    
   8515000   298.74939     -2877.3125      2078.4151      3653.6785      28.777213    
   8520000   305.13766     -2914.601       2071.1188      3704.3047      10.304473    
   8525000   302.89241     -2881.5744      2035.0794      3667.8287      23.42025     
   8530000   301.28534     -2903.2879      2163.6451      3750.7291      2.7465357    
   8535000   296.83523     -2876.4939      2095.7037      3643.257       2.6872388    
   8540000   298.68765     -2891.9789      2089.5889      3649.2657      34.734285    
   8545000   301.23308     -2871.3832      2147.6961      3765.9058      27.146909    
   8550000   296.54647     -2919.358       2129.0624      3629.4479      39.783505    
   8555000   300.49        -2960.5434      2100.9191      3618.8937      19.488317    
   8560000   297.93921     -2927.5439      2180.6094      3693.5665     -6.9254273    
   8565000   297.63298     -2962.9509      2074.3144      3547.3005      7.3385783    
   8570000   297.7655      -2961.8093      2096.1777      3572.2804      7.4484518    
   8575000   302.63028     -2951.4319      2095.7264      3654.7115     -4.8766215    
   8580000   295.30352     -2909.5861      2150.8198      3642.4521      40.365598    
   8585000   307.53283     -2928.4395      2115.1159      3770.1613      6.5072549    
   8590000   301.8346      -2939.1015      2134.4162      3693.8727     -1.8268476    
   8595000   304.63354     -2966.1251      2131.1133      3705.2618     -4.6817643    
   8600000   303.30963     -2949.4059      2162.6014      3733.7374      24.565675    
   8605000   299.55303     -2900.0654      2121.7142      3686.2023      8.37906      
   8610000   299.44028     -2948.0568      2128.6713      3643.4874      15.577142    
   8615000   299.16942     -2959.2166      2088.2729      3587.8923      17.892707    
   8620000   301.69814     -2950.9263      2149.8319      3695.4299      16.870081    
   8625000   300.69874     -2984.6969      2009.656       3506.5883      2.5870105    
   8630000   296.17175     -2944.5211      2119.7192      3589.3567      19.433327    
   8635000   301.11195     -2956.5627      2099.4465      3630.6714      12.901674    
   8640000   298.78546     -2968.0342      2108.6571      3593.7363     -1.2742651    
   8645000   300.06116     -2991.0699      2091.1437      3572.2004      9.610231     
   8650000   298.99959     -2923.7417      2088.5156      3621.0788      14.367403    
ERROR on proc 5: Bond atoms 1177 1178 missing on proc 5 at step 8653920 (src/src/ntopo_bond_all.cpp:59)
Last command: run				${trajsteps}
ERROR on proc 14: Bond atoms 1179 1180 missing on proc 14 at step 8653920 (src/src/ntopo_bond_all.cpp:59)
Last command: run				${trajsteps}
--------------------------------------------------------------------------
MPI_ABORT was invoked on rank 5 in communicator MPI_COMM_WORLD
with errorcode 1.

NOTE: invoking MPI_ABORT causes Open MPI to kill all MPI processes.
You may or may not see output from other processes, depending on
exactly when Open MPI kills them.
--------------------------------------------------------------------------
[kp313:1295930] 1 more process has sent help message help-mpi-api.txt / mpi-abort
[kp313:1295930] Set MCA parameter "orte_base_help_aggregate" to 0 to see all help / error messages
