LAMMPS (23 Jun 2022)
OMP_NUM_THREADS environment is not set. Defaulting to 1 thread. (src/src/comm.cpp:98)
  using 1 OpenMP thread(s) per MPI task
Created orthogonal box = (0 0 0) to (150 150 150)
  2 by 3 by 3 MPI processor grid
Read molecule template lig:
  1 molecules
  0 fragments
  5 atoms with max type 2
  4 bonds with max type 1
  3 angles with max type 1
  0 dihedrals with max type 0
  0 impropers with max type 0
Created 1 atoms
  using box units in orthogonal box = (0 0 0) to (150 150 150)
  create_atoms CPU = 0.000 seconds
Created 3000 atoms
  using lattice units in orthogonal box = (0 0 0) to (150 150 150)
  create_atoms CPU = 0.006 seconds
Finding 1-2 1-3 1-4 neighbors ...
  special bond factors lj:    0        1        1       
  special bond factors coul:  0        0        0       
     2 = max # of 1-2 neighbors
     2 = max # of 1-3 neighbors
     2 = max # of 1-4 neighbors
     7 = max # of special neighbors
  special bonds CPU = 0.001 seconds
3000 atoms in group ligands
Generated 0 of 6 mixed pair_coeff terms from geometric mixing rule
Neighbor list info ...
  update every 1 steps, delay 10 steps, check yes
  max neighbors/atom: 2000, page size: 100000
  master list distance cutoff = 60
  ghost atom cutoff = 60
  binsize = 30, bins = 5 5 5
  1 neighbor lists, perpetual/occasional/extra = 1 0 0
  (1) pair lj/expand, perpetual
      attributes: half, newton on
      pair build: half/bin/newton
      stencil: half/bin/3d
      bin: standard
Setting up Verlet run ...
  Unit style    : real
  Current step  : 0
  Time step     : 30
Per MPI rank memory allocation (min/avg/max) = 8.329 | 8.352 | 8.375 Mbytes
   Step          Temp          E_pair         E_mol          TotEng         Press     
         0   0              2.4296723e+13  3.7351619e-25  2.4296723e+13  1.9745044e+12
      5000   137.94439     -2472.7201      634.00726     -605.15469      0.59285598   
     10000   143.44077     -3050.1959      621.74398     -1145.7428     -4.707598     
Loop time of 8.5451 on 18 procs for 10000 steps with 3001 atoms

Performance: 3033.318 ns/day, 0.008 hours/ns, 1170.261 timesteps/s
99.4% CPU use with 18 MPI tasks x 1 OpenMP threads

MPI task timing breakdown:
Section |  min time  |  avg time  |  max time  |%varavg| %total
---------------------------------------------------------------
Pair    | 0.42985    | 0.89985    | 1.4049     |  33.0 | 10.53
Bond    | 0.10103    | 0.15676    | 0.20387    |   8.5 |  1.83
Neigh   | 2.5575     | 2.568      | 2.5795     |   0.5 | 30.05
Comm    | 4.0462     | 4.6226     | 5.1854     |  17.3 | 54.10
Output  | 0.0023774  | 0.0024011  | 0.002431   |   0.0 |  0.03
Modify  | 0.11982    | 0.18159    | 0.22926    |   8.3 |  2.13
Other   |            | 0.1139     |            |       |  1.33

Nlocal:        166.722 ave         233 max          69 min
Histogram: 1 0 3 2 1 1 2 3 1 4
Nghost:           4838 ave        5095 max        4489 min
Histogram: 1 0 2 3 1 3 1 2 3 2
Neighs:        2759.89 ave        4465 max        1105 min
Histogram: 3 1 1 4 0 2 1 2 1 3

Total # of neighbors = 49678
Ave neighs/atom = 16.553815
Ave special neighs/atom = 3.5988004
Neighbor list builds = 909
Dangerous builds = 0
1 atoms in group nps
600 atoms in group amines
Generated 0 of 6 mixed pair_coeff terms from geometric mixing rule
Neighbor list info ...
  update every 1 steps, delay 10 steps, check yes
  max neighbors/atom: 2000, page size: 100000
  master list distance cutoff = 60
  ghost atom cutoff = 60
  binsize = 30, bins = 5 5 5
  3 neighbor lists, perpetual/occasional/extra = 1 2 0
  (1) pair lj/expand, perpetual
      attributes: half, newton on
      pair build: half/bin/newton
      stencil: half/bin/3d
      bin: standard
  (2) compute coord/atom, occasional
      attributes: full, newton on
      pair build: full/bin
      stencil: full/bin/3d
      bin: standard
  (3) compute coord/atom, occasional
      attributes: full, newton on
      pair build: full/bin
      stencil: full/bin/3d
      bin: standard
Setting up Verlet run ...
  Unit style    : real
  Current step  : 10000
  Time step     : 30
Per MPI rank memory allocation (min/avg/max) = 10.35 | 10.51 | 12.34 Mbytes
   Step          Temp          E_pair         E_mol          TotEng         Press     
     10000   143.44077     -3050.1959      621.74398     -1145.7428     -4.707598     
     15000   300.58752     -1833.0314      1358.5887      2213.5402      6.0026174    
     20000   304.47079     -1984.8238      1285.9031      2023.7881     -11.179972    
     25000   294.98881     -2203.1236      1257.8539      1692.6471      6.9460748    
     30000   303.01668     -2413.0079      1247.6761      1544.3736      1.2400938    
     35000   297.13047     -2669.8249      1242.612       1229.8556      1.6813879    
     40000   304.25317     -2814.2485      1242.5624      1149.0766      3.2464176    
     45000   293.42787     -2980.403       1245.8047      889.35992     -18.543137    
     50000   296.26461     -3113.6879      1272.8091      808.44673      6.5918981    
     55000   306.49819     -3354.9519      1263.1114      648.99821      14.756371    
     60000   299.84862     -3476.0767      1294.0931      499.39175     -21.428989    
     65000   300.22688     -3582.1941      1285.3096      387.87346     -13.402292    
     70000   306.5189      -3802.4878      1331.2825      269.81866      19.897296    
     75000   302.60984     -3986.5842      1218.1184     -62.39842       11.973115    
     80000   300.33145     -4118.4756      1260.1377     -172.64491      9.135219     
     85000   304.81596     -4202.5683      1298.9854     -177.78738      13.547897    
     90000   295.47314     -4365.0591      1239.3782     -483.43303      18.565207    
     95000   298.47075     -4460.309       1293.3515     -497.90361     -2.1677995    
    100000   301.99594     -4465.281       1274.1365     -490.56687      0.16973108   
    105000   296.78365     -4645.2157      1188.3004     -802.94824     -8.1088634    
    110000   295.3713      -4669.3699      1263.0731     -764.95955     -9.7973916    
    115000   303.19849     -4624.4646      1243.6051     -669.52817     -8.0687427    
    120000   302.48201     -4669.8226      1252.444      -712.45439     -3.424965     
    125000   299.3149      -4783.0624      1264.7483     -841.71151     -15.642125    
    130000   303.90519     -4780.4324      1268.1086     -794.67294      6.5467851    
    135000   298.81716     -4857.9375      1217.3443     -968.44163      17.276197    
    140000   300.96094     -4811.822       1254.7733     -865.72648      3.265948     
    145000   298.51977     -4807.5196      1250.4063     -887.62121     -0.51545473   
    150000   299.48781     -4877.655       1239.4091     -960.09701      5.8113422    
    155000   294.57489     -4942.2973      1210.3038     -1097.7781     -11.021116    
    160000   294.9604      -5159.8275      1238.0687     -1284.096       22.814525    
    165000   303.5147      -5166.3629      1230.6917     -1221.5123      9.8927293    
    170000   299.14202     -5174.8289      1234.5429     -1265.2294      19.172315    
    175000   299.69475     -5218.9802      1254.4412     -1284.5396     -18.066342    
    180000   302.39135     -5246.8129      1229.1093     -1313.59       -4.1942427    
    185000   299.49256     -5153.4768      1284.7771     -1190.5084      19.996753    
    190000   298.89737     -5246.3912      1215.0344     -1358.4879     -16.95263     
    195000   297.75879     -5213.411       1262.0186     -1288.7051      7.7172988    
    200000   302.96678     -5272.3163      1209.2255     -1353.8315      15.640161    
    205000   301.80133     -5362.2522      1228.2231     -1435.1918     -31.861081    
    210000   305.39449     -5423.5535      1213.3943     -1479.1903     -10.215434    
    215000   300.02834     -5384.9427      1200.1952     -1501.765       23.682675    
    220000   306.64005     -5389.6042      1192.6364     -1454.8606     -5.2705792    
    225000   304.84345     -5323.4145      1242.7697     -1354.6035      1.5943372    
    230000   296.12647     -5379.6399      1215.9976     -1515.552      -26.229531    
    235000   288.28564     -5311.5638      1231.2285     -1502.3611     -11.771275    
    240000   295.42532     -5283.8561      1233.0158     -1409.0201     -17.951661    
    245000   299.47677     -5434.959       1237.4907     -1519.4182      1.6862492    
    250000   301.61227     -5418.4933      1189.6167     -1531.7299      4.7969202    
    255000   302.80521     -5378.0506      1278.9578     -1391.2783     -10.218947    
    260000   301.71645     -5507.1739      1206.0625     -1603.0332     -16.34455     
    265000   298.01705     -5421.1231      1220.3293     -1535.7972     -17.587173    
    270000   304.41624     -5365.5405      1242.0052     -1401.3143      6.0697651    
    275000   292.25971     -5451.3015      1214.5838     -1623.2056      20.004762    
    280000   299.66072     -5394.9615      1215.0716     -1500.1948      25.169857    
    285000   304.34805     -5391.4791      1187.6824     -1482.1855      6.9156427    
    290000   299.15404     -5369.7665      1194.8631     -1499.7393     -6.9358247    
    295000   295.96797     -5476.6143      1255.0758     -1574.8656     -20.762637    
    300000   293.23551     -5424.7554      1221.3119     -1581.2054     -16.157691    
    305000   299.65607     -5427.8544      1197.1412     -1551.0597     -21.11577     
    310000   299.2309      -5391.776       1205.5498     -1510.3748      5.1588863    
    315000   302.6526      -5404.8582      1234.3012     -1464.1073     -16.603984    
    320000   295.30389     -5429.5746      1209.4005     -1579.4397      22.853319    
    325000   300.16604     -5422.3053      1205.0124     -1533.0791     -6.7817779    
    330000   299.59613     -5494.1437      1208.9309     -1606.0953     -1.4402404    
    335000   299.16286     -5416.4531      1158.814      -1582.3962      6.2560999    
    340000   296.34543     -5371.9751      1215.2096     -1506.7172     -17.338453    
    345000   298.31729     -5386.7422      1221.4278     -1497.6329     -18.302069    
    350000   293.99392     -5378.4721      1208.6056     -1540.8464      8.1602265    
    355000   298.38441     -5350.6339      1247.9052     -1434.4469      11.034992    
    360000   295.05893     -5372.7996      1208.4799     -1525.7758      5.9395018    
    365000   301.32048     -5407.8916      1197.5261     -1515.8282      22.443286    
    370000   297.57175     -5430.9814      1224.4498     -1545.5171     -14.887134    
    375000   305.59104     -5350.8201      1178.263      -1439.8306      19.241908    
    380000   308.47102     -5501.4036      1209.8765     -1533.0465      40.476332    
    385000   300.19165     -5370.6799      1232.7854     -1453.4516      1.7674972    
    390000   299.71644     -5358.9865      1216.6777     -1462.1155     -0.52435209   
    395000   299.72225     -5405.7927      1229.1787     -1496.3686      13.903211    
    400000   301.12715     -5422.1468      1237.6246     -1491.7137      16.185933    
    405000   291.87242     -5449.7381      1246.4448     -1593.2446      2.8473632    
    410000   304.28527     -5491.114       1211.1247     -1558.9395      7.2488839    
    415000   308.04668     -5497.7581      1207.8249     -1535.2472     -7.9810335    
    420000   303.68156     -5330.6451      1214.0638     -1400.9302      6.7789649    
    425000   301.83748     -5433.6954      1258.8905     -1475.6444     -0.20661638   
    430000   294.58201     -5568.8923      1274.4191     -1660.1941     -8.5049974    
    435000   305.90852     -5465.3848      1208.9721     -1520.8471      7.0060828    
    440000   293.79524     -5402.2342      1221.5541     -1553.4366     -8.5518677    
    445000   305.25571     -5417.6605      1196.2258     -1491.7069     -32.713462    
    450000   300.59888     -5423.1945      1243.9778     -1491.1322     -0.47211635   
    455000   295.32374     -5492.6589      1193.0358     -1658.7112     -15.917652    
    460000   297.92019     -5517.3309      1212.4672     -1640.7332      23.770591    
    465000   300.0254      -5473.4183      1205.6621     -1584.8        -2.1206964    
    470000   293.66647     -5462.0863      1202.6936     -1633.3008     -16.042406    
    475000   306.72344     -5412.4669      1243.3308     -1426.2832     -5.2662105    
    480000   297.20492     -5522.4644      1245.3814     -1619.3488      20.810397    
    485000   299.01506     -5484.2637      1251.8236     -1558.5188      4.1620219    
    490000   297.43277     -5441.9454      1221.4452     -1560.7284      8.33281      
    495000   303.59284     -5443.2718      1232.4759     -1495.9381     -2.747783     
    500000   292.56387     -5440.2834      1211.7764     -1612.2751     -5.4200325    
    505000   304.5797      -5328.8515      1196.4603     -1408.7086     -29.870964    
    510000   302.41784     -5368.0524      1226.8072     -1436.8948     -25.967824    
    515000   298.51409     -5385.7436      1227.2203     -1489.0819     -16.992242    
    520000   304.85955     -5441.1529      1187.6178     -1527.3499      13.212269    
    525000   300.37617     -5403.7556      1249.5075     -1468.1552      16.139505    
    530000   295.50178     -5393.4214      1272.1891     -1478.7282     -15.636345    
    535000   297.50857     -5405.3794      1190.8787     -1554.0511     -2.6139347    
    540000   308.02597     -5336.129       1176.4912     -1405.1371     -15.593885    
    545000   303.97419     -5417.7888      1201.5436     -1497.9773      11.972373    
    550000   301.277       -5411.7833      1148.4348     -1569.2001     -3.4898222    
    555000   298.82765     -5396.9817      1264.7538     -1459.9825      33.078412    
    560000   292.98401     -5466.551       1195.4221     -1651.1399     -12.698745    
    565000   292.43467     -5386.8629      1182.2443     -1589.542      -4.7532485    
    570000   311.30804     -5436.5348      1215.9875     -1436.6969     -2.3012887    
    575000   297.64407     -5432.7449      1253.3935     -1517.69        30.242547    
    580000   293.57508     -5498.4135      1238.3639     -1634.775      -8.2317556    
    585000   302.42142     -5465.4974      1213.3501     -1547.7648      1.7400897    
    590000   303.95857     -5388.6877      1229.2847     -1441.2747      14.200656    
    595000   293.40562     -5516.5727      1182.6058     -1710.2076     -1.060697     
    600000   298.86326     -5555.9297      1238.7506     -1644.6152     -0.070248648  
    605000   299.74414     -5478.4433      1162.8203     -1635.1819     -1.6328986    
    610000   295.7321      -5574.3858      1228.5849     -1701.2372     -11.358879    
    615000   292.21761     -5578.8935      1184.3706     -1781.3873      11.712264    
    620000   297.10588     -5581.1169      1146.6979     -1777.5704     -5.1866537    
    625000   296.69346     -5594.9468      1212.5206     -1729.2656      24.563633    
    630000   299.44671     -5522.526       1193.3004     -1651.4443     -12.685841    
    635000   296.75303     -5608.6016      1244.0314     -1710.8769      1.3294118    
    640000   294.20086     -5440.7022      1169.3107     -1640.5208     -4.3940427    
    645000   301.58426     -5525.0937      1215.4167     -1612.7809      11.744131    
    650000   296.74197     -5509.5208      1239.4164     -1616.51        17.302972    
    655000   297.23014     -5631.6765      1227.268      -1746.4488      15.436596    
    660000   302.34191     -5574.8952      1244.0918     -1627.1319      17.549415    
    665000   298.39622     -5629.8423      1229.1213     -1732.3337      7.2672774    
    670000   293.46964     -5659.802       1211.8818     -1823.5884      11.491259    
    675000   302.2682      -5598.0573      1218.114      -1676.9311     -3.3653855    
    680000   299.14281     -5617.91        1156.4617     -1786.3846     -7.8057657    
    685000   309.51622     -5519.755       1214.1879     -1537.7399      2.8199349    
    690000   293.12885     -5522.9761      1195.7731     -1705.9187      2.9021439    
    695000   296.04785     -5549.1395      1214.2237     -1687.5286     -24.060126    
    700000   293.16284     -5540.5478      1226.6732     -1692.2864     -21.812892    
    705000   301.46295     -5593.5201      1220.9921     -1676.7166      13.860817    
    710000   290.43043     -5667.878       1267.1656     -1803.5586     -5.0996058    
    715000   302.18196     -5692.6625      1218.1648     -1772.2567     -2.8980874    
    720000   295.02747     -5600.7326      1214.1001     -1748.3699      5.9202156    
    725000   300.34549     -5604.8355      1217.8947     -1701.1223      8.5090691    
    730000   295.76089     -5560.3315      1236.9226     -1678.5877      25.300323    
    735000   295.86371     -5626.9567      1194.7514     -1786.4648      12.978185    
    740000   304.34884     -5681.1493      1212.0712     -1747.4599     -6.7888206    
    745000   295.3796      -5584.7856      1235.9959     -1707.3783     -27.496882    
    750000   308.17951     -5616.7143      1210.0795     -1650.7611     -0.90686007   
    755000   299.8708      -5575.6101      1197.0729     -1696.9634     -7.3920722    
    760000   313.74508     -5632.0785      1209.1552     -1617.2798      0.26215982   
    765000   308.77354     -5512.4028      1227.5109     -1523.7062     -17.588898    
    770000   302.82513     -5586.5711      1212.4937     -1666.0847     -8.196319     
    775000   299.79388     -5621.6729      1210.0757     -1730.7114      8.0790101    
    780000   307.55529     -5511.109       1178.1349     -1582.6823     -13.014661    
    785000   297.44533     -5563.0856      1231.2441     -1671.9574     -12.274888    
    790000   302.21024     -5535.44        1211.2908     -1621.6553     -17.316459    
    795000   296.17552     -5535.6834      1234.5338     -1652.6207     -2.1392978    
    800000   296.52234     -5607.9973      1195.9623     -1760.4047     -0.95844475   
    805000   294.98034     -5583.369       1240.703      -1704.8249     -35.872605    
    810000   298.17057     -5672.6028      1186.2176     -1820.0157     -7.7439631    
    815000   300.13809     -5561.4959      1212.9423     -1664.5897      5.3257333    
    820000   298.26191     -5674.8819      1258.074      -1749.6216      14.641827    
    825000   304.9045      -5571.4051      1203.9648     -1640.8532     -7.1820238    
    830000   296.66366     -5603.8011      1160.362      -1790.545      -11.289282    
    835000   293.19958     -5682.8678      1174.3911     -1886.56        19.84792     
    840000   295.5617      -5705.0836      1239.4443     -1822.5995     -2.7287327    
    845000   296.03615     -5569.3111      1180.6611     -1741.3675     -4.1625186    
    850000   296.31499     -5641.1774      1243.7921     -1747.6092     -14.193655    
    855000   299.90861     -5502.6992      1189.6102     -1631.1771      6.8154791    
    860000   301.19838     -5567.482       1250.3282     -1623.7084     -16.561527    
    865000   296.25874     -5568.5863      1244.6354     -1674.6779     -1.2206427    
    870000   306.74897     -5602.5808      1246.7054     -1612.7942      2.7816739    
    875000   293.6632      -5663.2224      1247.8653     -1789.2944     -17.53877     
    880000   295.09355     -5655.1197      1217.3097     -1798.9566     -9.5111797    
    885000   300.72356     -5756.5749      1193.5968     -1873.7787     -15.68639     
    890000   299.49807     -5668.3643      1200.4635     -1789.6603     -1.5114382    
    895000   302.69906     -5617.8749      1215.4048     -1695.6049     -4.335437     
    900000   300.33688     -5540.6108      1214.7147     -1640.1545     -22.700937    
    905000   295.6153      -5612.7593      1238.5213     -1730.7188      27.737507    
    910000   300.84089     -5523.358       1225.9915     -1607.1178      21.419579    
    915000   305.59834     -5544.2075      1223.0327     -1588.383       0.35506349   
    920000   298.2537      -5530.7761      1217.1891     -1646.474      -3.6857194    
    925000   293.05877     -5638.1969      1230.8538     -1786.6855      6.2403467    
    930000   303.70559     -5607.3102      1235.0613     -1656.3829      11.077861    
    935000   293.97748     -5611.9609      1213.187      -1769.9008     -20.715273    
    940000   299.98978     -5573.5441      1173.2087     -1717.6978     -15.227246    
    945000   308.08658     -5433.8905      1248.1443     -1430.7035     -6.0592941    
    950000   301.41371     -5551.5784      1176.7635     -1679.4439      6.054251     
    955000   294.14906     -5528.6845      1237.5809     -1660.6962     -46.567894    
    960000   300.98494     -5609.5988      1210.1661     -1707.8959      6.0383733    
    965000   304.58858     -5617.3059      1214.9166     -1678.6272      0.043489016  
    970000   295.54319     -5656.132       1249.6655     -1763.5922     -5.6398488    
    975000   298.58174     -5609.674       1190.174      -1749.4536      17.587693    
    980000   299.93842     -5606.26        1219.5957     -1704.486      -8.0932958    
    985000   304.23484     -5592.1313      1253.0684     -1618.4641      5.1201291    
    990000   298.89662     -5593.1659      1243.8389     -1676.4649      20.286921    
    995000   309.51202     -5620.8765      1196.0701     -1657.0167      7.7414154    
   1000000   296.62987     -5639.7239      1206.885      -1780.2471      5.2375509    
   1005000   294.67714     -5562.5214      1222.4507     -1704.941      -7.9394681    
   1010000   298.76692     -5567.7896      1207.9262     -1688.1611      14.286022    
   1015000   298.31302     -5589.7639      1214.4406     -1707.6799     -0.24936205   
   1020000   307.14193     -5561.8019      1253.135      -1562.0716     -12.579205    
   1025000   295.04841     -5612.4334      1230.1009     -1743.8827     -5.9284117    
   1030000   301.44513     -5640.0908      1220.1136     -1724.3252     -7.4982913    
   1035000   302.62323     -5579.2613      1201.6527     -1671.4215     -22.125957    
   1040000   293.40142     -5630.4446      1234.6863     -1772.0366      2.9068814    
   1045000   305.24822     -5600.565       1191.3108     -1679.5933     -14.05788     
   1050000   296.56408     -5531.3709      1185.2851     -1694.0822      26.63617     
   1055000   301.12575     -5645.353       1189.8167     -1762.7403     -11.926725    
   1060000   301.64032     -5632.0674      1233.4778     -1701.1921     -7.5254724    
   1065000   296.51262     -5648.4064      1194.9678     -1801.8952     -4.6362114    
   1070000   305.01855     -5590.7389      1217.863      -1645.2688     -2.9748327    
   1075000   300.87424     -5667.1382      1144.1177     -1832.4736     -4.3156999    
   1080000   299.9057      -5631.621       1233.1121     -1716.6231      3.4399967    
   1085000   298.46417     -5545.5149      1207.3961     -1669.1238      29.566864    
   1090000   303.70599     -5613.3539      1229.9198     -1667.5645      12.505483    
   1095000   301.69099     -5643.1168      1211.9304     -1733.3358      16.955685    
   1100000   299.87678     -5559.068       1251.9467     -1625.4941     -11.68905     
   1105000   303.95778     -5657.7687      1232.6141     -1707.0334     -2.2061118    
   1110000   303.06374     -5605.941       1201.6018     -1694.2129      4.4875826    
   1115000   298.89282     -5573.4865      1202.4441     -1698.2142     -3.3647355    
   1120000   301.86399     -5576.4535      1191.2362     -1685.8197      14.426943    
   1125000   303.00402     -5561.605       1218.9266     -1633.0862      23.545461    
   1130000   300.22213     -5619.1871      1212.3786     -1722.0931     -7.6833109    
   1135000   306.69944     -5540.782       1308.6543     -1489.4894     -18.292856    
   1140000   304.4648      -5556.7278      1264.1888     -1569.8838     -18.56528     
   1145000   296.47535     -5567.0396      1234.7196     -1681.1098      0.72544911   
   1150000   299.15835     -5555.5479      1244.9973     -1635.3479      33.331768    
   1155000   306.91308     -5637.3123      1235.773      -1656.9905      7.4586771    
   1160000   300.71598     -5640.6593      1188.6098     -1762.9178      22.2634      
   1165000   302.98915     -5559.3152      1231.8624     -1617.9935      24.138539    
   1170000   297.09939     -5616.4102      1213.8345     -1745.7852      12.154213    
   1175000   307.1216      -5588.3471      1232.6514     -1609.2822     -7.9117689    
   1180000   295.14542     -5532.3637      1220.7027     -1672.3437     -11.494242    
   1185000   304.00205     -5625.7513      1210.3059     -1696.9283     -15.589153    
   1190000   294.52659     -5598.6111      1213.5229     -1751.3048     -9.0488045    
   1195000   299.37068     -5640.9685      1172.779      -1791.0881     -19.733549    
   1200000   301.32274     -5681.3415      1215.3426     -1771.4413      9.5781161    
   1205000   299.14455     -5668.1784      1209.0561     -1784.0431      18.940523    
   1210000   296.52024     -5633.3203      1241.0328     -1740.6759     -25.271488    
   1215000   296.63538     -5646.3043      1259.5722     -1734.0909      20.097825    
   1220000   295.19511     -5666.4715      1213.3334     -1813.3764     -12.592249    
   1225000   296.70354     -5625.2495      1194.1226     -1777.8762     -38.012711    
   1230000   305.5533      -5692.3918      1224.0233     -1735.9794     -0.030662439  
   1235000   296.54881     -5622.7337      1184.6559     -1786.2107      4.4332742    
   1240000   301.69517     -5603.6804      1193.415      -1712.3775      4.8386612    
   1245000   299.56262     -5631.5125      1244.7898     -1707.9049      8.5452922    
   1250000   308.35419     -5681.0798      1176.0465     -1747.5974     -10.552852    
   1255000   297.99948     -5604.952       1212.6978     -1727.4146      7.1579328    
   1260000   311.11706     -5558.5984      1174.7073     -1601.7485      17.937288    
   1265000   304.28185     -5604.4265      1225.1723     -1658.235      -20.442588    
   1270000   304.87053     -5582.1277      1222.5071     -1633.3372      2.7432517    
   1275000   304.28754     -5487.0635      1187.1576     -1578.8359     -10.882288    
   1280000   295.55966     -5439.2788      1257.2648     -1538.9924      1.8897811    
   1285000   308.80602     -5447.011       1229.3702     -1456.1646      13.653687    
   1290000   301.43398     -5509.5284      1245.5154     -1568.4606      24.193545    
   1295000   301.4386      -5605.0505      1201.4362     -1708.0207      4.1254545    
   1300000   311.69885     -5596.2411      1207.9129     -1600.983       11.784152    
   1305000   310.3178      -5557.1585      1282.7071     -1499.4562     -4.5109838    
   1310000   305.59875     -5685.0533      1241.4635     -1710.7943     -8.7323869    
   1315000   297.31495     -5610.8347      1168.9251     -1783.1914     -10.717687    
   1320000   299.24122     -5572.1226      1237.9444     -1658.2345      12.14493     
   1325000   300.97592     -5541.5278      1201.596      -1648.4756      21.407209    
   1330000   305.98993     -5623.2396      1197.6976     -1689.2483     -21.961608    
   1335000   304.14639     -5667.5421      1219.1687     -1728.5656     -27.245033    
   1340000   297.46156     -5679.1538      1187.4651     -1831.6595      16.070044    
   1345000   304.80739     -5575.1715      1223.9679     -1625.4848     -20.232742    
   1350000   304.44214     -5609.2107      1218.6385     -1668.1196     -15.977127    
   1355000   299.22229     -5632.1173      1207.0269     -1749.316       5.3337404    
   1360000   301.71809     -5666.5434      1215.2721     -1753.1783      9.3822941    
   1365000   290.91358     -5724.2719      1248.2162     -1874.5813     -0.85338249   
   1370000   296.00904     -5607.0245      1206.2412     -1753.7431      3.7320911    
   1375000   296.61922     -5655.203       1200.8023     -1801.904      -3.6959688    
   1380000   300.72918     -5575.7957      1198.1951     -1688.3509      1.8164176    
   1385000   299.17096     -5569.9068      1206.4064     -1688.185      -19.580827    
   1390000   303.25413     -5562.1264      1199.212      -1651.0856      10.569503    
   1395000   298.59578     -5603.7712      1194.8067     -1738.7926     -9.3019433    
   1400000   304.75765     -5610.6201      1201.2607     -1684.0855      12.1397      
   1405000   301.51435     -5612.0301      1194.4597     -1721.2994     -31.254209    
   1410000   305.23817     -5661.1443      1234.1233     -1697.45        24.977352    
   1415000   301.21289     -5553.8481      1179.9537     -1680.3192      30.919217    
   1420000   302.14043     -5591.6454      1258.2053     -1631.5705      9.3016526    
   1425000   304.30805     -5666.9955      1204.9302     -1740.8118     -19.494777    
   1430000   301.29879     -5592.8816      1255.6571     -1642.8811      3.576336     
   1435000   305.85425     -5576.5537      1221.2497     -1620.2237     -20.068597    
   1440000   303.67584     -5531.0525      1142.76       -1672.6925      0.27609107   
   1445000   305.6287      -5515.2019      1148.5159     -1633.6228      0.25998268   
   1450000   302.97466     -5444.9127      1273.8058     -1461.7771     -9.501292     
   1455000   295.71131     -5564.6291      1206.7589     -1713.4924      9.5717248    
   1460000   304.91162     -5599.7387      1208.4674     -1664.6205      10.65895     
   1465000   300.48241     -5672.8155      1253.8127     -1731.9599     -7.2633943    
   1470000   295.31956     -5651.1729      1225.6757     -1784.6228     -6.662749     
   1475000   301.94526     -5589.9949      1188.8683     -1701.0023     -3.3862536    
   1480000   303.31266     -5593.1239      1194.0945     -1686.6771      24.411811    
   1485000   300.14055     -5589.8604      1201.0009     -1704.8737      8.763308     
   1490000   291.6185      -5601.3021      1211.537      -1781.9871     -5.0217143    
   1495000   294.78358     -5539.4088      1250.564      -1652.7632      16.297354    
   1500000   289.66899     -5658.5198      1181.4037     -1886.7714      10.929323    
   1505000   290.61074     -5672.7403      1236.1364     -1837.8376      31.657465    
   1510000   294.53365     -5701.4003      1203.7173     -1863.8363      27.137075    
   1515000   301.02916     -5583.2093      1203.0755     -1688.2015      7.765037     
   1520000   293.92059     -5544.3589      1223.5669     -1692.4277     -3.7111239    
   1525000   293.76044     -5576.1276      1193.0956     -1756.0998     -13.061823    
   1530000   301.534       -5489.4899      1254.7051     -1538.338       27.20744     
   1535000   296.77717     -5547.9892      1215.2077     -1678.8723      19.563136    
   1540000   304.759       -5557.0325      1176.491      -1655.2554     -20.754258    
   1545000   300.06863     -5492.686       1234.1733     -1575.1699     -4.4555624    
   1550000   297.49809     -5499.2979      1206.4107     -1632.5314      2.9927981    
   1555000   300.37746     -5495.3436      1206.1691     -1603.07       -2.5828778    
   1560000   304.63244     -5652.6728      1233.6427     -1694.8758     -5.0814043    
   1565000   302.85022     -5548.7647      1193.167      -1647.3808     -15.229073    
   1570000   305.35523     -5559.0078      1204.1203     -1624.2696      10.775028    
   1575000   299.53622     -5599.064       1203.1304     -1717.3519      9.1243278    
   1580000   296.38265     -5561.1349      1215.3448     -1695.4089      7.5069848    
   1585000   295.3766      -5536.0972      1206.4372     -1688.2753      11.456191    
   1590000   306.94768     -5549.1133      1201.0329     -1603.2222      0.50727835   
   1595000   297.67109     -5526.048       1231.936      -1632.2089      3.0314138    
   1600000   304.99018     -5630.8115      1176.0076     -1727.4506     -17.683121    
   1605000   300.36156     -5669.261       1248.9816     -1734.3172     -4.2542888    
   1610000   297.6513      -5658.1942      1175.2099     -1821.2584      22.810505    
   1615000   303.32864     -5560.4451      1216.1294     -1631.8206      14.740866    
   1620000   292.43828     -5522.3817      1221.4295     -1685.8433      10.568112    
   1625000   298.77255     -5548.901       1214.4413     -1662.7071      10.572124    
   1630000   306.60403     -5610.139       1257.7621     -1610.5918     -13.08193     
   1635000   303.33558     -5549.4383      1184.7312     -1652.15       -4.1411371    
   1640000   303.89212     -5501.8591      1227.4568     -1556.8683     -8.3866487    
   1645000   305.6668      -5578.2566      1208.5115     -1636.3411      21.545       
   1650000   302.54832     -5547.3316      1194.1806     -1647.6338      12.505131    
   1655000   301.80586     -5559.9571      1207.0673     -1654.0121     -0.35118283   
   1660000   296.88235     -5574.4318      1171.3834     -1748.1986      6.5181152    
   1665000   308.11572     -5558.2174      1214.7955     -1588.1185     -1.3728535    
   1670000   301.73065     -5489.7532      1268.7891     -1522.7589      20.755289    
   1675000   297.73072     -5446.5817      1244.5524     -1539.5932      8.7336362    
   1680000   296.3522      -5581.7351      1229.5104     -1702.1158      5.6756479    
   1685000   297.07293     -5572.4555      1245.8844     -1670.0171      13.863451    
   1690000   295.77369     -5512.1149      1213.6109     -1653.5684     -10.770144    
   1695000   300.34517     -5481.623       1194.3499     -1601.4575      1.6967955    
   1700000   307.4311      -5593.4513      1203.9567     -1640.3135      6.6815154    
   1705000   306.10763     -5509.2164      1241.4883     -1530.382      -15.996565    
   1710000   303.81254     -5439.3034      1231.6873     -1490.7937      20.016593    
   1715000   296.76832     -5532.9882      1208.4514     -1670.7068      29.12537     
   1720000   295.3166      -5542.8289      1231.2902     -1670.6907      16.712649    
   1725000   297.19295     -5606.4264      1275.3437     -1673.4555      3.9686996    
   1730000   300.74524     -5574.8731      1216.9175     -1668.5624     -24.496712    
   1735000   302.44561     -5521.317       1230.2249     -1586.4934     -10.151136    
   1740000   294.56637     -5569.6406      1232.5965     -1702.9049      14.025324    
   1745000   308.64972     -5625.6207      1182.1787     -1683.3634     -0.63462778   
   1750000   297.25128     -5618.0385      1241.4588     -1718.4309     -0.85931808   
   1755000   293.89516     -5638.7275      1224.718      -1785.8725      9.6193806    
   1760000   295.5554      -5750.3898      1217.512      -1889.8944     -4.5027986    
   1765000   306.96311     -5673.6569      1196.8471     -1731.8136      17.928957    
   1770000   301.72467     -5652.2782      1162.1755     -1791.9509     -2.3475234    
   1775000   303.96808     -5596.7749      1257.2916     -1621.2699      18.865154    
   1780000   303.18989     -5548.1659      1199.3818     -1637.5296      12.494031    
   1785000   307.19287     -5599.33        1255.7561     -1596.5231     -0.2768704    
   1790000   302.86055     -5552.9585      1202.0049     -1642.6444     -5.2061729    
   1795000   296.77674     -5559.2388      1161.2373     -1744.0962     -1.5330022    
   1800000   305.83141     -5531.277       1160.2752     -1636.1257     -11.637657    
   1805000   301.39191     -5599.8341      1148.8464     -1755.8116     -8.7222528    
   1810000   299.99907     -5593.6653      1237.4082     -1673.5364     -11.154087    
   1815000   305.97923     -5572.9898      1234.2659     -1602.526      -17.117559    
   1820000   298.99885     -5586.9063      1204.6113     -1708.5186     -35.795914    
   1825000   305.67944     -5590.6323      1195.0537     -1662.0616     -3.1188183    
   1830000   298.14319     -5656.8106      1193.2007     -1797.4853     -17.848905    
   1835000   302.36757     -5633.726       1244.7763     -1685.0489      7.2193269    
   1840000   299.16011     -5665.255       1222.2496     -1767.7871     -8.8355208    
   1845000   298.68853     -5634.4399      1202.8485     -1760.5901      16.146482    
   1850000   295.23655     -5613.9819      1200.3883     -1773.4614     -1.2736187    
   1855000   292.68313     -5547.5929      1280.2552     -1650.0392      4.4999316    
   1860000   296.76488     -5595.4246      1224.9629     -1716.6625     -18.899445    
   1865000   308.90394     -5701.5253      1252.5181     -1686.6553      1.6509463    
   1870000   300.70289     -5605.9635      1221.7383     -1695.2105     -13.94706     
   1875000   298.03425     -5556.2599      1237.2679     -1653.8415     -18.862828    
   1880000   301.61798     -5544.9168      1255.227      -1592.4921     -16.760727    
   1885000   296.39678     -5631.7776      1279.5451     -1701.7251     -5.6499301    
   1890000   298.78558     -5647.9535      1223.8108     -1752.2735     -3.7933248    
   1895000   304.74759     -5566.5017      1230.5045     -1610.8132      4.3855276    
   1900000   293.0362      -5565.8277      1227.0356     -1718.3363     -8.2683961    
   1905000   297.08219     -5558.7658      1275.0734     -1627.0557     -0.40308521   
   1910000   300.16342     -5521.4265      1210.004      -1627.2321     -14.08681     
   1915000   302.5873      -5529.7046      1264.0732     -1559.7657      24.294353    
   1920000   299.06044     -5475.688       1183.1675     -1618.1934      10.718588    
   1925000   304.84032     -5556.6602      1280.385      -1550.262      -17.852627    
   1930000   291.21251     -5621.7143      1217.5017     -1800.0651     -4.0485577    
   1935000   305.76003     -5583.2808      1183.1666     -1665.8765     -11.844695    
   1940000   298.81225     -5563.9698      1198.4876     -1693.3746      4.639151     
   1945000   300.08512     -5624.6355      1232.6618     -1708.4835     -8.3526712    
   1950000   301.06918     -5616.4356      1236.2005     -1687.945       8.3934685    
   1955000   305.31125     -5612.5547      1208.5277     -1673.8025     -2.510371     
   1960000   306.76639     -5560.8306      1192.3446     -1625.249       24.042397    
   1965000   301.47098     -5642.1569      1241.9279     -1704.3457      6.6292341    
   1970000   299.20766     -5645.7643      1133.663      -1836.4577      15.209144    
   1975000   307.96541     -5570.0999      1208.257      -1607.8837      25.774067    
   1980000   301.82287     -5592.53        1231.9934     -1661.5067     -8.2599449    
   1985000   291.60376     -5633.5138      1204.944      -1820.9235      9.0501148    
   1990000   298.91949     -5541.3601      1216.7226     -1651.5709      37.523621    
   1995000   299.48142     -5507.5065      1202.1423     -1627.2726     -9.8463444    
   2000000   298.8199      -5556.9322      1255.6808     -1629.0754      6.079575     
   2005000   299.39663     -5493.2899      1203.673      -1612.2835     -14.2268      
   2010000   292.29465     -5531.5983      1234.2627     -1683.5111      33.666424    
   2015000   296.98646     -5434.2926      1176.6714     -1601.8406      8.7195299    
   2020000   301.52709     -5456.3207      1159.6063     -1600.3294      18.013215    
   2025000   297.97494     -5532.1007      1185.8664     -1681.6142     -0.90042905   
   2030000   299.97432     -5488.8562      1199.666      -1606.6909     -12.90405     
   2035000   297.71149     -5453.9423      1196.4705     -1595.2076     -10.300121    
   2040000   298.60184     -5525.7692      1228.6949     -1626.8482     -15.177152    
   2045000   293.6903      -5522.8247      1197.0925     -1699.4273      1.1135121    
   2050000   303.7554      -5609.4353      1210.6399     -1682.484      -4.0343804    
   2055000   294.38586     -5659.5013      1170.2872     -1856.6891     -4.8498721    
   2060000   299.82233     -5577.9242      1279.4681     -1617.3159      3.335373     
   2065000   291.60087     -5553.4122      1154.9959     -1790.7959      22.24841     
   2070000   297.75704     -5574.5616      1218.3856     -1693.5044      16.607216    
   2075000   300.14209     -5485.6174      1190.9559     -1610.6619      22.820057    
   2080000   299.25914     -5526.043       1212.179      -1637.76       -7.4207303    
   2085000   298.01481     -5480.6223      1228.6009     -1587.0448     -15.001759    
   2090000   294.50199     -5533.5569      1246.0316     -1653.9619     -0.065664034  
   2095000   306.14629     -5620.081       1233.8768     -1648.5124      13.372886    
   2100000   309.05537     -5509.2697      1198.2346     -1547.329       2.7052018    
   2105000   298.61237     -5442.0999      1204.5081     -1567.2715      21.641878    
   2110000   300.84675     -5499.8992      1178.633      -1630.9651      4.4496723    
   2115000   293.96112     -5617.1469      1192.3719     -1796.0483     -5.0956157    
   2120000   297.20056     -5586.7055      1271.6265     -1657.3837     -16.835656    
   2125000   302.04196     -5532.5334      1200.1819     -1631.3624     -0.61000633   
   2130000   295.24155     -5558.0735      1218.3382     -1699.5584     -3.982659     
   2135000   295.33739     -5539.515       1193.7055     -1704.7755      9.6101956    
   2140000   295.61732     -5593.8919      1197.6579     -1752.6967      2.4633527    
   2145000   301.06583     -5581.2103      1185.5694     -1703.3807      1.919026     
   2150000   298.31187     -5608.4039      1213.5852     -1727.1856     -2.3703934    
   2155000   294.96671     -5549.225       1178.668      -1732.8378     -13.770991    
   2160000   294.2432      -5518.642       1234.9965     -1652.3963      12.017894    
   2165000   300.98306     -5541.4838      1282.8197     -1567.1441      2.3022731    
   2170000   304.28562     -5607.8851      1220.8405     -1665.9918      20.347811    
   2175000   298.54073     -5582.9214      1197.4983     -1715.7434     -7.5157291    
   2180000   295.31868     -5597.0166      1229.7468     -1726.4031      0.50226744   
   2185000   300.21733     -5539.0919      1194.1019     -1660.3175     -6.3497692    
   2190000   295.85177     -5569.1581      1186.3576     -1737.1668      32.01756     
   2195000   288.75829     -5564.1251      1261.8818     -1720.0425      22.948145    
   2200000   294.91614     -5561.2235      1274.4658     -1649.4907     -19.73702     
   2205000   300.39074     -5586.9086      1227.1809     -1673.5045      1.4806198    
   2210000   291.88814     -5595.5614      1219.5409     -1765.8313      11.321318    
   2215000   300.26712     -5618.6186      1191.79       -1741.7108     -18.765487    
   2220000   298.47168     -5638.1905      1186.9046     -1782.2237     -22.101391    
   2225000   301.03545     -5620.9393      1200.0291     -1728.9217      25.284316    
   2230000   300.04335     -5549.7794      1211.9805     -1654.6822     -0.65696242   
   2235000   300.13155     -5745.7016      1231.2825     -1830.5137      14.09571     
   2240000   296.92521     -5599.1853      1159.6829     -1784.2694     -5.1695108    
   2245000   293.56107     -5643.6872      1191.7547     -1826.7831     -13.366846    
   2250000   299.21299     -5723.2067      1240.3704     -1807.145       21.731819    
   2255000   300.55894     -5623.6271      1211.5293     -1724.3705     -4.4761536    
   2260000   304.03141     -5689.075       1166.838      -1803.4573      33.738714    
   2265000   306.26663     -5677.9569      1208.1481     -1731.0409      35.416609    
   2270000   294.91402     -5674.7614      1206.3256     -1831.1878     -22.635323    
   2275000   303.72231     -5655.963       1226.6348     -1713.3127     -2.9152041    
   2280000   293.0981      -5551.0099      1221.7262     -1708.2744      17.698228    
   2285000   303.55163     -5649.9126      1212.0827     -1723.3407      5.7862662    
   2290000   298.18818     -5584.4668      1202.7933     -1715.1465     -6.196601     
   2295000   294.33303     -5463.217       1213.309      -1617.8554      3.8575333    
   2300000   307.55332     -5544.0432      1223.3769     -1570.3922      4.4772909    
   2305000   295.93877     -5596.6016      1235.2819     -1714.9079      42.756265    
   2310000   304.20136     -5532.6546      1198.6556     -1613.6996     -9.8284743    
   2315000   299.94824     -5574.6033      1208.1324     -1684.2047     -21.036527    
   2320000   296.38565     -5536.2279      1225.9932     -1659.8267      11.213201    
   2325000   295.71583     -5602.9174      1208.8984     -1749.6009     -11.982167    
   2330000   304.69403     -5662.1843      1171.1184     -1766.3608     -37.587191    
   2335000   299.12321     -5667.5096      1206.2422     -1786.3789     -30.810842    
   2340000   305.7287      -5552.1175      1269.219      -1548.9409     -13.296739    
   2345000   301.75147     -5593.1169      1232.0946     -1662.6309     -6.1512671    
   2350000   298.29314     -5710.4654      1219.7519     -1823.2479     -1.9211643    
   2355000   298.39555     -5556.4399      1178.7529     -1709.3056     -10.808275    
   2360000   300.87438     -5528.2176      1260.8927     -1576.7768     -6.6807199    
   2365000   304.19969     -5637.8466      1226.3261     -1691.236      -8.4160172    
   2370000   297.5088      -5559.9483      1178.1917     -1721.3049      14.384254    
   2375000   295.38167     -5624.6659      1262.8372     -1720.3987      14.062983    
   2380000   306.81801     -5668.1363      1184.1418     -1740.2958     -8.4481312    
   2385000   293.30104     -5660.9383      1252.5611     -1785.5531      4.2242647    
   2390000   298.04057     -5567.911       1239.749      -1662.9551     -2.0829909    
   2395000   292.2871      -5516.855       1233.7779     -1669.3202     -16.659519    
   2400000   302.54812     -5642.5491      1233.5634     -1703.4703      7.3643662    
   2405000   297.72822     -5567.7092      1222.3618     -1682.9336      0.79915089   
   2410000   306.03614     -5546.7357      1163.1437     -1646.8852     -4.9695753    
   2415000   304.40468     -5544.4348      1227.6867     -1594.6305     -28.416706    
   2420000   300.72553     -5578.6804      1235.2035     -1654.2599      21.487457    
   2425000   300.45151     -5639.7427      1238.388      -1714.5881      18.41875     
   2430000   297.59955     -5598.6532      1243.4349     -1693.9552     -7.7314813    
   2435000   306.16138     -5571.3869      1177.9763     -1655.5839      2.4242721    
   2440000   293.73998     -5663.685       1213.6065     -1823.3292      5.7298706    
   2445000   300.1715      -5697.7257      1248.3553     -1765.1077      7.4235144    
   2450000   305.30713     -5650.4034      1200.737      -1719.4787     -20.210092    
   2455000   298.50009     -5622.1347      1250.6489     -1702.1695      16.240084    
   2460000   299.75342     -5661.1894      1167.6929     -1812.9725      1.087964     
   2465000   305.36503     -5781.1443      1251.5246     -1798.9143      3.61832      
   2470000   295.1604      -5677.8329      1223.7391     -1814.6426      13.396399    
   2475000   292.83419     -5675.3596      1184.4695     -1872.2408     -6.1106742    
   2480000   308.13117     -5662.4315      1229.8336     -1677.1564      7.7121879    
   2485000   301.63086     -5637.1733      1162.3955     -1777.4649      9.1056705    
   2490000   298.20427     -5657.3748      1209.7976     -1780.9063     -22.514567    
   2495000   291.78974     -5719.3174      1241.3475     -1868.6605      52.386434    
   2500000   307.87055     -5668.5177      1175.6412     -1739.7657     -2.8813189    
   2505000   310.20185     -5636.881       1200.864      -1662.0586      16.528784    
   2510000   296.06278     -5744.7945      1233.8076     -1863.4662      5.1589807    
   2515000   293.80895     -5608.0464      1225.2021     -1755.4784     -23.797807    
   2520000   305.6223      -5544.3548      1240.0397     -1571.309      -17.601748    
   2525000   300.49544     -5597.7922      1266.1758     -1644.4569      14.88157     
   2530000   309.5553      -5584.2571      1210.2273     -1605.8531     -8.2572023    
   2535000   297.65038     -5593.411       1199.7539     -1731.9395      7.4961782    
   2540000   306.52445     -5660.7233      1188.4168     -1731.233      -10.598604    
   2545000   297.75346     -5575.679       1222.6728     -1690.3666      31.081205    
   2550000   296.73698     -5571.0158      1228.6275     -1688.8386     -8.3457267    
   2555000   303.55379     -5542.2704      1224.2715     -1603.4903      5.3159718    
   2560000   298.98484     -5638.0039      1184.7925     -1779.5604     -9.144593     
   2565000   289.55405     -5708.6068      1197.0138     -1922.2761      2.6899137    
   2570000   301.01828     -5661.2985      1199.5134     -1769.9502     -37.834384    
   2575000   294.0131      -5646.2608      1259.1399     -1757.9292     -3.0403934    
   2580000   307.45465     -5624.9137      1268.389      -1607.133      -14.51643     
   2585000   300.01603     -5643.3519      1216.1937     -1744.2858      21.909692    
   2590000   297.75396     -5679.8088      1145.1766     -1871.9882      12.970104    
   2595000   304.16266     -5631.1412      1220.6062     -1690.5817      2.9213981    
   2600000   295.97438     -5558.8713      1220.5552     -1691.5859     -11.176833    
   2605000   309.56209     -5666.309       1277.504      -1620.5676      2.4791341    
   2610000   296.52003     -5654.8806      1262.4372     -1740.8338      10.72076     
   2615000   302.27933     -5619.9885      1171.5307     -1745.346      -1.1660948    
   2620000   294.53979     -5574.2926      1199.8468     -1740.5442     -11.923338    
   2625000   301.28325     -5598.381       1191.6697     -1712.5069     -11.956484    
   2630000   307.91014     -5627.0478      1203.4933     -1670.0896     -7.4775398    
   2635000   305.64348     -5615.2142      1255.5852     -1626.4335      15.345142    
   2640000   300.14499     -5602.6813      1202.974      -1715.6816     -6.4368877    
   2645000   300.83162     -5625.0136      1187.3812     -1747.4667     -7.5673906    
   2650000   298.7051      -5634.7385      1215.6679     -1747.9211     -14.715098    
   2655000   301.30955     -5539.4873      1176.4133     -1668.6343      4.5393207    
   2660000   303.53725     -5587.3895      1238.1161     -1634.9127     -12.659383    
   2665000   302.35658     -5515.7238      1205.1679     -1606.7534      3.3640145    
   2670000   299.86043     -5497.6144      1245.1673     -1570.9661      4.4259932    
   2675000   300.90152     -5546.1439      1190.7619     -1664.5912      12.569996    
   2680000   305.22344     -5509.6207      1186.5214     -1593.6601      5.7484506    
   2685000   299.1659      -5649.4066      1221.4664     -1752.67        7.4307371    
   2690000   297.86942     -5571.6903      1199.9442     -1708.0695     -1.9300991    
   2695000   298.49548     -5585.3819      1223.929      -1692.1779     -12.526898    
   2700000   300.54061     -5599.3505      1186.5645     -1725.2226     -3.2464827    
   2705000   302.37994     -5510.482       1228.4856     -1577.985       1.3060869    
   2710000   296.92885     -5575.4065      1223.895      -1696.2461     -20.675751    
   2715000   293.52719     -5521.1362      1215.7572     -1680.5327      29.706026    
   2720000   294.4201      -5589.7285      1206.114      -1750.7833     -4.3807827    
   2725000   305.44428     -5463.9482      1224.0762     -1508.4578     -14.082007    
   2730000   302.01746     -5513.604       1194.207      -1618.6269      1.0039569    
   2735000   298.10076     -5611.8827      1166.363      -1779.7744      15.465152    
   2740000   297.36505     -5479.9579      1199.4703     -1621.3214      20.405177    
   2745000   302.8962      -5529.5641      1223.3928     -1597.5432     -28.586388    
   2750000   298.08153     -5564.312       1231.9025     -1666.8362     -21.451356    
   2755000   300.38306     -5503.7525      1187.6382     -1629.9599      22.58755     
   2760000   304.66055     -5594.236       1241.6186     -1628.2116      19.150177    
   2765000   297.60877     -5578.2382      1219.1689     -1697.7236      20.478977    
   2770000   298.81903     -5609.3668      1227.9626     -1709.2359      10.317503    
   2775000   303.19272     -5622.4314      1248.7569     -1662.3948      16.733199    
   2780000   302.22076     -5450.1368      1244.2718     -1503.277       16.529913    
   2785000   299.04086     -5526.325       1251.045      -1601.128      -0.629881     
   2790000   297.59874     -5602.2084      1260.1678     -1680.7846     -11.016332    
   2795000   306.6268      -5524.4964      1185.3133     -1597.1943      23.49993     
   2800000   306.92561     -5566.4401      1220.5838     -1601.1955      8.2789932    
   2805000   303.90283     -5613.8834      1222.8038     -1673.4497     -12.255132    
   2810000   296.08266     -5615.4878      1314.6673     -1653.1219      16.872546    
   2815000   299.45335     -5531.8108      1220.763      -1633.2072      6.8241603    
   2820000   293.00071     -5557.1055      1242.7238     -1694.2433      29.834655    
   2825000   304.18967     -5582.4743      1275.4587     -1586.8207     -13.655694    
   2830000   295.92738     -5512.4905      1220.9955     -1645.1851      18.020565    
   2835000   295.61816     -5651.188       1203.8382     -1803.805      -18.122829    
   2840000   305.37392     -5693.5121      1201.4247     -1761.3025      9.1356015    
   2845000   293.59532     -5612.0617      1216.449      -1770.1571      19.181663    
   2850000   290.29816     -5543.3586      1227.6297     -1719.7578      7.5569044    
   2855000   310.92211     -5604.4777      1218.5224     -1605.556       13.559111    
   2860000   290.37358     -5630.0657      1207.548      -1825.8722     -4.0744509    
   2865000   302.10066     -5607.0626      1188.2992     -1717.2494     -1.9773209    
   2870000   308.06465     -5666.2172      1200.0867     -1711.2838      13.765352    
   2875000   296.38039     -5675.8296      1266.5885     -1758.8802      16.556144    
   2880000   301.78161     -5701.7554      1228.4945     -1774.5999      4.1412431    
   2885000   299.31083     -5582.0118      1246.8113     -1658.6343     -2.5607762    
   2890000   299.64971     -5601.8403      1222.5222     -1699.7214      11.279652    
   2895000   293.96709     -5587.1182      1202.1283     -1756.2098     -30.868561    
   2900000   292.54856     -5658.9306      1212.2939     -1830.5416      9.3200433    
   2905000   297.77759     -5596.2073      1182.6193     -1750.7327     -2.5203252    
   2910000   301.0985      -5544.5403      1250.0803     -1601.9078     -4.2168885    
   2915000   304.1424      -5504.4079      1233.6704     -1550.9653      8.2375816    
   2920000   304.001       -5619.0689      1263.0751     -1637.4861      12.828882    
   2925000   305.12419     -5565.8493      1213.0742     -1624.2234      19.269294    
   2930000   302.72165     -5560.8548      1181.0014     -1672.7861     -11.407572    
   2935000   298.55307     -5671.6229      1220.5657     -1781.2673      17.697936    
   2940000   293.55411     -5615.2863      1164.0257     -1826.1735     -34.849983    
   2945000   301.04007     -5625.8404      1242.6875     -1691.1231     -10.328477    
   2950000   296.00325     -5612.3294      1218.4465     -1746.8945     -2.2017558    
   2955000   299.04561     -5542.6583      1231.1095     -1637.3543      17.582828    
   2960000   306.98378     -5637.5744      1220.0778     -1672.3155      8.2744406    
   2965000   293.6649      -5592.8584      1176.153      -1790.6276      22.43552     
   2970000   307.20665     -5557.8588      1222.9527     -1587.7321     -14.304902    
   2975000   302.91967     -5572.5494      1202.1699     -1661.5415     -16.96824     
   2980000   294.36423     -5538.4646      1233.2402     -1672.8928     -8.0699597    
   2985000   299.76869     -5572.4701      1144.8321     -1746.9775     -32.333709    
   2990000   299.6779      -5621.1323      1196.2557     -1745.0279      8.6640274    
   2995000   294.0263      -5605.5802      1179.6623     -1796.6083      35.36704     
   3000000   302.64669     -5673.435       1211.9256     -1755.1125     -10.544573    
   3005000   300.05533     -5585.8045      1250.3101     -1652.2706      12.506877    
   3010000   304.32655     -5638.6268      1174.0273     -1743.1807      8.9190624    
   3015000   303.0344      -5721.0706      1194.7945     -1816.4121     -5.4229169    
   3020000   303.31493     -5561.2121      1195.0005     -1653.839       6.4947317    
   3025000   297.99829     -5566.2828      1191.0863     -1710.3676      7.29913      
   3030000   308.32796     -5566.2769      1209.9844     -1599.0913     -15.069028    
   3035000   300.84728     -5475.5957      1234.3898     -1550.9001      13.899463    
   3040000   298.41181     -5612.8262      1243.6176     -1700.6819      6.6870979    
   3045000   302.23814     -5530.2546      1209.6335     -1617.8776      15.383869    
   3050000   296.12028     -5591.8215      1221.5057     -1722.2808     -2.4226374    
   3055000   303.00547     -5647.0251      1243.331      -1694.0887      6.3103892    
   3060000   301.08168     -5565.9593      1162.0296     -1711.5279      0.014024606  
   3065000   306.11305     -5614.9725      1185.8573     -1691.7206      17.679847    
   3070000   294.58867     -5633.4974      1199.4138     -1799.745      -26.90297     
   3075000   304.21078     -5596.9515      1227.8499     -1648.7178      10.067       
   3080000   295.83802     -5630.7521      1236.6195     -1748.6218     -7.0027538    
   3085000   298.46716     -5572.7447      1188.6998     -1715.0232     -26.449933    
   3090000   304.85637     -5605.8031      1263.6183     -1616.0281      13.345424    
   3095000   297.68291     -5559.3841      1175.6988     -1721.6767      19.827381    
   3100000   297.03311     -5555.3699      1182.7598     -1716.4123     -12.902709    
   3105000   304.27763     -5421.3931      1184.7267     -1515.6849     -10.106254    
   3110000   297.1444      -5527.7625      1221.4544     -1649.1151      29.653465    
   3115000   298.70366     -5538.0625      1195.8338     -1671.0921      3.8597478    
   3120000   299.30633     -5625.1681      1260.8408     -1687.8014     -11.410144    
   3125000   305.44146     -5525.7516      1194.6406     -1599.7221      11.403143    
   3130000   294.82462     -5508.6932      1199.0257     -1673.219      -3.1181532    
   3135000   298.44705     -5520.7739      1218.6988     -1633.2331     -11.770001    
   3140000   298.95522     -5588.5285      1213.7866     -1701.3557     -1.9304385    
   3145000   295.29763     -5525.5459      1232.7275     -1652.14       -0.15852954   
   3150000   307.99932     -5521.5827      1216.3699     -1550.9504      7.7917843    
   3155000   303.32917     -5513.3998      1217.7814     -1583.1184     -7.7067133    
   3160000   302.11804     -5570.6151      1247.7585     -1621.1872      10.482432    
   3165000   298.52732     -5645.2885      1275.7471     -1699.9817     -1.5137194    
   3170000   303.67507     -5538.0979      1216.4188     -1606.0859      16.180986    
   3175000   301.46692     -5512.4513      1149.212      -1667.3924     -5.6954903    
   3180000   301.57338     -5593.2199      1234.8188     -1661.6022      1.1857446    
   3185000   302.72831     -5543.7813      1221.3797     -1615.2748     -7.8637804    
   3190000   299.84728     -5521.9542      1250.7336     -1589.8572      20.566927    
   3195000   298.13092     -5577.4978      1239.5318     -1671.9511     -6.0208402    
   3200000   305.06075     -5568.3593      1223.4922     -1616.8827     -12.939382    
   3205000   302.1161      -5536.7644      1209.0729     -1626.0393      36.253774    
   3210000   298.21839     -5424.133       1225.5775     -1531.7583      1.0515152    
   3215000   296.13191     -5462.8841      1221.7986     -1592.9466      1.3086657    
   3220000   297.47014     -5543.9571      1262.9476     -1620.9036      23.196447    
   3225000   297.00666     -5526.3992      1225.2661     -1645.1718     -1.066532     
   3230000   295.7532      -5494.0081      1224.4567     -1624.7991     -0.46014367   
   3235000   297.11222     -5424.211       1218.5533     -1548.7524     -4.8175633    
   3240000   296.79188     -5554.3896      1194.6012     -1705.7478      24.867854    
   3245000   296.62374     -5506.0632      1214.462      -1639.0642      10.032272    
   3250000   303.84773     -5507.4049      1204.7933     -1585.4744      3.1484959    
   3255000   293.54524     -5564.7644      1197.7363     -1742.0203      13.84798     
   3260000   305.00379     -5635.1839      1203.8571     -1703.8517      3.2061113    
   3265000   296.44915     -5765.2398      1232.4195     -1881.8444     -11.658505    
   3270000   298.29674     -5627.7305      1204.6415     -1755.5912     -3.1266431    
   3275000   298.84461     -5608.7542      1208.829      -1727.5282      2.1293607    
   3280000   300.32559     -5690.1412      1217.0195     -1787.4811     -5.3149278    
   3285000   303.1163      -5627.7186      1200.0574     -1717.0649      10.315631    
   3290000   303.88216     -5686.645       1214.3924     -1754.8076      10.258249    
   3295000   299.63852     -5609.933       1197.5752     -1732.8612     -12.594045    
   3300000   295.39979     -5593.0017      1222.9611     -1728.4486      22.101773    
   3305000   299.23481     -5624.2817      1203.8516     -1744.5437     -2.146611     
   3310000   303.78075     -5562.7246      1216.8558     -1629.3307      3.2529226    
   3315000   304.08861     -5495.1525      1170.8892     -1604.9721      14.314755    
   3320000   297.20276     -5563.7845      1278.7552     -1627.3144      0.97580896   
   3325000   304.32005     -5514.2339      1221.5039     -1571.3692     -12.471042    
   3330000   299.56646     -5540.7325      1250.8036     -1611.0768     -15.023937    
   3335000   299.56661     -5562.0981      1231.934      -1651.3106      0.082035575  
   3340000   298.40329     -5581.7662      1252.7197     -1660.596       24.440663    
   3345000   308.7552      -5615.1219      1248.6381     -1605.4621     -5.7085952    
   3350000   303.2546      -5585.0559      1191.8797     -1681.3431      15.395162    
   3355000   300.22822     -5655.1785      1217.6628     -1752.7459     -1.0113314    
   3360000   298.22104     -5601.9869      1272.0575     -1663.1087      5.1993614    
   3365000   300.42364     -5662.781       1228.5595     -1747.7041      14.599911    
   3370000   293.25199     -5604.2858      1241.6983     -1740.2021      17.802827    
   3375000   305.4386      -5584.1293      1230.3176     -1622.4484      4.2789552    
   3380000   298.10857     -5553.855       1204.2132     -1683.8267     -18.679318    
   3385000   293.22412     -5627.3601      1173.1094     -1832.1145      3.5834297    
   3390000   302.18224     -5589.906       1230.1307     -1657.5318     -2.3057845    
   3395000   302.03621     -5617.3895      1239.3154     -1677.1364     -6.7931073    
   3400000   293.89294     -5531.9548      1237.6809     -1666.1569     -9.9011892    
   3405000   303.4239      -5629.3352      1276.0549     -1639.9333      1.4775944    
   3410000   307.7386      -5615.3218      1191.912      -1671.4788      5.6028042    
   3415000   294.65176     -5649.9618      1226.8398     -1788.2191     -6.5770263    
   3420000   297.75926     -5563.349       1220.0482     -1680.6094      1.9143171    
   3425000   303.50739     -5628.7911      1216.2769     -1698.4205      13.188955    
   3430000   294.62137     -5575.2289      1193.4411     -1747.1567     -30.408581    
   3435000   303.72422     -5535.3322      1216.1572     -1603.1423      7.0519946    
   3440000   295.42857     -5617.8884      1190.5116     -1785.5275      35.598121    
   3445000   309.2471      -5648.8737      1185.4181     -1698.035       11.303378    
   3450000   301.63059     -5549.3151      1192.7768     -1659.2278     -1.6568644    
   3455000   301.30656     -5606.0005      1220.5798     -1691.0079     -2.6607731    
   3460000   305.83306     -5506.6642      1247.7601     -1524.0133     -8.849112     
   3465000   296.59388     -5570.5893      1194.2179     -1724.1013      32.275237    
   3470000   304.35977     -5582.6427      1220.2769     -1640.6499     -11.862328    
   3475000   304.78717     -5548.1734      1219.753      -1602.8824      9.4277755    
   3480000   303.58661     -5572.9867      1191.7262     -1666.4584     -4.409359     
   3485000   300.78121     -5541.5381      1175.7936     -1676.0295     -5.1629959    
   3490000   300.11811     -5480.7353      1243.4134     -1553.5366      7.8356283    
   3495000   301.74867     -5502.1623      1218.6957     -1585.1002      18.017722    
   3500000   298.52523     -5582.2556      1248.9334     -1663.7812     -14.483788    
   3505000   303.71127     -5576.3163      1217.1107     -1643.2887     -7.1486844    
   3510000   303.41918     -5600.1766      1220.5817     -1666.2901      0.24514122   
   3515000   300.65444     -5657.2878      1253.6795     -1715.0269      4.9053296    
   3520000   294.78666     -5569.0473      1246.3135     -1686.6247      6.9433464    
   3525000   294.15093     -5667.2799      1203.7531     -1833.1027      11.196484    
   3530000   295.46457     -5594.8285      1223.2269     -1729.4303      12.255291    
   3535000   294.90084     -5720.8281      1212.5023     -1871.1957     -15.70083     
   3540000   305.16053     -5543.8056      1171.9504     -1642.9785      1.7602512    
   3545000   290.67361     -5601.8963      1220.2118     -1782.356      -13.82154     
   3550000   302.70738     -5642.7713      1230.145      -1705.6867      7.5796183    
   3555000   299.78774     -5566.16        1234.2935     -1651.0356      0.23252694   
   3560000   297.34082     -5575.6425      1206.3538     -1710.3392     -22.857445    
   3565000   295.56338     -5577.0471      1182.0021     -1751.9902     -15.533506    
   3570000   297.23444     -5618.3011      1213.9206     -1746.3822      6.236213     
   3575000   291.29307     -5590.7285      1212.6018     -1773.2587     -4.7222302    
   3580000   299.74066     -5612.8978      1206.9768     -1725.5111     -16.261031    
   3585000   304.68401     -5641.6258      1198.6842     -1718.3261     -9.3998622    
   3590000   301.95518     -5583.9675      1250.4443     -1633.3102     -21.046486    
   3595000   298.15076     -5657.7957      1245.9252     -1745.6782     -22.528439    
   3600000   305.04535     -5615.9855      1216.4515     -1671.6873     -19.204547    
   3605000   304.85307     -5669.2626      1228.0681     -1715.0673      15.786826    
   3610000   294.95077     -5622.7728      1259.1011     -1726.095      -0.17101471   
   3615000   300.90893     -5636.3837      1229.4555     -1716.0711     -2.3142998    
   3620000   296.74003     -5588.3095      1218.6316     -1716.1009     -5.4302753    
   3625000   306.24857     -5644.7941      1209.421      -1696.7667     -1.7152821    
   3630000   300.63075     -5647.093       1211.8401     -1746.8834      36.791728    
   3635000   300.99368     -5594.2319      1219.1516     -1683.4654      15.730044    
   3640000   301.84772     -5614.6904      1219.92       -1695.5183     -8.5166044    
   3645000   293.07423     -5647.0507      1206.4283     -1819.8266     -34.235787    
   3650000   299.68151     -5684.4478      1219.9331     -1784.6337     -3.6003488    
   3655000   297.01365     -5645.5555      1174.2198     -1815.3119     -9.7548304    
   3660000   302.4589      -5536.1534      1214.1386     -1617.2972     -23.812581    
   3665000   301.95958     -5609.2093      1215.1708     -1693.7861      6.4436517    
   3670000   296.73303     -5680.777       1208.8792     -1818.3834     -21.684694    
   3675000   296.63773     -5558.2032      1162.3389     -1743.2021     -2.838753     
   3680000   299.0603      -5635.1274      1198.0751     -1762.7264      7.4528053    
   3685000   299.90259     -5692.5354      1165.626      -1845.0515     -6.0908477    
   3690000   297.2333      -5701.295       1203.615      -1839.692      -15.13187     
   3695000   298.80499     -5704.1432      1210.155      -1821.9455     -1.500949     
   3700000   297.01455     -5769.3775      1177.825      -1935.5206      2.7139649    
   3705000   294.36287     -5699.7266      1279.7343     -1787.6729      9.7535977    
   3710000   295.00017     -5664.7933      1193.716      -1833.059      -14.847306    
   3715000   299.54848     -5681.0146      1244.1666     -1758.1567     -4.0925936    
   3720000   298.93745     -5630.3076      1203.0079     -1754.0725      4.1627759    
   3725000   296.52055     -5632.2289      1169.6857     -1810.9289     -3.4339642    
   3730000   296.94097     -5616.7989      1237.3898     -1724.0352      8.9669975    
   3735000   292.59411     -5707.7635      1228.8344     -1862.4268      6.459832     
   3740000   296.30035     -5727.1099      1206.6697     -1870.7951     -6.4798728    
   3745000   297.85595     -5604.573       1224.7552     -1716.2618     -8.4413371    
   3750000   294.78223     -5550.9359      1198.3804     -1716.486       8.8229348    
   3755000   296.785       -5513.6785      1201.1493     -1658.55       -16.012854    
   3760000   305.01295     -5586.3702      1175.9117     -1682.9015     -14.061131    
   3765000   297.15739     -5594.2283      1216.2129     -1720.7062     -6.639558     
   3770000   302.13577     -5559.6147      1177.1485     -1680.6382      11.944713    
   3775000   296.81397     -5591.4654      1233.3152     -1703.9119     -28.097318    
   3780000   301.99085     -5582.4022      1175.0578     -1706.8124      45.255061    
   3785000   295.94113     -5608.099       1231.1827     -1730.4835      12.421184    
   3790000   292.59835     -5597.5685      1186.2134     -1794.8148     -9.7633999    
   3795000   301.14487     -5590.2532      1216.6527     -1680.6336      18.142234    
   3800000   302.42075     -5517.8937      1211.3817     -1602.1356      24.898965    
   3805000   305.14632     -5576.5197      1213.1857     -1634.5843     -22.770261    
   3810000   301.55041     -5559.1337      1244.8633     -1617.6769      5.5663264    
   3815000   301.42744     -5639.8055      1205.5058     -1738.8058     -5.9416269    
   3820000   298.43738     -5682.1486      1189.8676     -1823.5255      12.039441    
   3825000   300.27556     -5576.1349      1225.3166     -1665.6251      8.1511237    
   3830000   300.10469     -5661.197       1202.8441     -1774.6877      27.046152    
   3835000   296.48944     -5661.7644      1255.9878     -1754.4406      3.8787472    
   3840000   298.23366     -5612.8135      1226.7623     -1719.1176     -4.0284359    
   3845000   304.59547     -5670.5617      1208.8377     -1737.9003     -10.384646    
   3850000   299.71461     -5504.8533      1225.5674     -1599.1089     -3.3138876    
   3855000   298.49048     -5528.5038      1231.4466     -1627.827       9.7275262    
   3860000   302.23937     -5538.1801      1173.5507     -1661.8748      1.7679484    
   3865000   310.37956     -5461.7379      1212.3414     -1473.8489      28.482417    
   3870000   306.02701     -5528.9509      1235.7122     -1556.6136      8.6225529    
   3875000   295.60064     -5457.2206      1201.9486     -1611.8839     -16.108588    
   3880000   306.67116     -5435.2719      1236.9156     -1455.9709     -7.2602216    
   3885000   304.17199     -5502.6762      1266.2198     -1516.4196      4.1183866    
   3890000   301.58981     -5556.2092      1228.7628     -1630.5006     -7.1926516    
   3895000   294.14056     -5640.0596      1253.7394     -1755.9887      21.183982    
   3900000   301.15995     -5632.2138      1204.9758     -1734.1362      14.293659    
   3905000   308.13294     -5656.3992      1209.4952     -1691.4467     -41.305238    
   3910000   300.85116     -5577.8727      1184.8562     -1702.676      -27.49084     
   3915000   302.31748     -5531.8015      1224.1467     -1604.2019     -24.824209    
   3920000   298.22602     -5500.5424      1219.4297     -1614.2474     -18.931389    
   3925000   307.49092     -5632.722       1218.4898     -1664.516       27.092952    
   3930000   302.0641      -5649.1405      1207.7407     -1740.2127      13.755908    
   3935000   308.62802     -5522.8904      1222.1932     -1540.8127      22.442923    
   3940000   298.5036      -5567.1602      1233.5213     -1664.2913      11.85392     
   3945000   291.02063     -5637.4115      1188.9793     -1846.0005     -29.164912    
   3950000   301.05935     -5679.4523      1196.1363     -1791.1138     -16.935634    
   3955000   296.66175     -5576.5906      1240.4194     -1683.2942      12.733462    
   3960000   301.94001     -5569.9965      1176.8318     -1693.0872     -22.707089    
   3965000   306.8014      -5609.2724      1207.2247     -1658.4975      6.7330642    
   3970000   300.84564     -5543.1208      1250.8764     -1601.9533      4.2353884    
   3975000   305.12791     -5569.3941      1243.588      -1597.221      -1.6226189    
   3980000   294.52045     -5623.1048      1215.4861     -1773.8901     -1.2287873    
   3985000   296.31222     -5588.0143      1219.1319     -1719.1311     -11.259386    
   3990000   286.80172     -5581.8187      1210.2215     -1806.8929      8.1822513    
   3995000   306.79108     -5609.8977      1179.3746     -1687.0653      9.3165015    
   4000000   300.82068     -5630.31        1177.0487     -1763.1934      26.767757    
   4005000   295.62411     -5608.3885      1231.9727     -1732.8179     -8.0626658    
   4010000   297.81185     -5675.8366      1223.6755     -1788.9995      23.472311    
   4015000   295.8697      -5686.0376      1234.4853     -1805.7583      2.5602531    
   4020000   299.35949     -5587.3124      1246.9409     -1663.3702      23.410911    
   4025000   301.38474     -5577.461       1230.6256     -1651.7233     -8.0289129    
   4030000   296.2239      -5641.799       1227.6903     -1765.1471     -0.78784317   
   4035000   291.31147     -5605.4266      1221.181      -1779.213      -5.6841874    
   4040000   295.24442     -5564.2457      1256.2016     -1667.8415     -4.9937809    
   4045000   292.00055     -5572.4348      1248.9211     -1712.3192     -0.73411741   
   4050000   303.3967      -5662.9755      1229.2138     -1720.6579     -3.1064942    
   4055000   307.60446     -5662.7347      1245.5142     -1666.4891      7.2992775    
   4060000   298.25309     -5626.926       1194.2765     -1765.5421     -27.792713    
   4065000   299.40214     -5596.0794      1215.8638     -1702.8329      10.748345    
   4070000   302.1869      -5665.0856      1198.39       -1764.4104     -3.6802669    
   4075000   290.11513     -5674.136       1173.0958     -1906.7059     -28.128691    
   4080000   300.54169     -5684.0268      1150.8721     -1845.5817     -7.7286807    
   4085000   299.33012     -5672.8103      1223.6832     -1772.3885      6.7760902    
   4090000   292.82188     -5685.0785      1174.9038     -1891.6355     -1.8027845    
   4095000   306.33482     -5573.5058      1201.9928     -1632.1353     -21.268619    
   4100000   305.79343     -5594.1136      1241.938      -1617.6393     -3.0204792    
   4105000   309.20347     -5568.0456      1190.9256     -1612.0895      9.160308     
   4110000   304.23842     -5601.1715      1222.9906     -1657.5501     -16.068127    
   4115000   298.63927     -5575.1634      1216.1243     -1688.4783      20.555267    
   4120000   300.22708     -5591.4458      1260.0106     -1646.6756     -2.1217469    
   4125000   299.17033     -5589.93        1260.5977     -1654.0226     -0.59173819   
   4130000   303.24087     -5624.0693      1226.6632     -1685.6957      12.235614    
   4135000   296.84762     -5682.1914      1203.24       -1824.4123      17.470745    
   4140000   300.41224     -5545.8268      1159.2705     -1700.1409     -11.213948    
   4145000   302.5141      -5619.8638      1185.6786     -1728.9741     -4.2512048    
   4150000   298.27732     -5672.4333      1169.5891     -1835.52        21.192811    
   4155000   295.92831     -5641.0627      1215.4438     -1779.3006     -4.5305025    
   4160000   306.90303     -5623.4142      1214.9468     -1664.0085     -5.1406298    
   4165000   304.87889     -5569.5392      1207.2553     -1635.9257     -19.622644    
   4170000   305.54332     -5538.2089      1200.7176     -1605.1914      11.070496    
   4175000   296.89201     -5505.5051      1250.0273     -1600.5417      20.706749    
   4180000   305.92739     -5512.243       1215.0384     -1561.4703      10.968748    
   4185000   294.73279     -5552.8353      1213.5755     -1703.6324      12.797661    
   4190000   292.96777     -5612.6462      1215.7412     -1777.0612     -16.093983    
   4195000   297.85877     -5565.4715      1266.1781     -1635.7122      0.85019735   
   4200000   300.88119     -5611.2246      1210.546      -1710.0696      2.7383395    
   4205000   304.19894     -5603.5161      1228.0063     -1655.232      -5.8501782    
   4210000   297.25302     -5583.0029      1234.4893     -1690.3493      12.558708    
   4215000   302.65465     -5519.6206      1215.8703     -1597.2823     -8.0894844    
   4220000   299.38174     -5531.122       1262.5271     -1591.3946     -5.5579947    
   4225000   302.15459     -5423.3472      1248.1056     -1473.2453      13.086851    
   4230000   310.42215     -5476.77        1232.851      -1467.9906     -6.5691101    
   4235000   311.54883     -5473.1981      1208.8997     -1478.2948     -11.99039     
   4240000   297.68899     -5536.5101      1208.3496     -1666.0975      2.0374304    
   4245000   301.7312      -5472.6493      1249.4796     -1524.9595      1.5016978    
   4250000   304.83565     -5531.4318      1233.5419     -1571.9184      4.2672071    
   4255000   300.25993     -5532.6773      1203.2653     -1644.3586     -2.5833395    
   4260000   306.28785     -5592.9357      1182.9919     -1670.986      -0.14212911   
   4265000   307.12986     -5645.187       1180.0649     -1718.6348     -31.271078    
   4270000   302.17013     -5655.3574      1214.1582     -1739.0639     -30.945211    
   4275000   296.88259     -5632.1549      1157.0052     -1820.2979     -2.9322755    
   4280000   296.2444      -5592.703       1218.3917     -1725.1665      6.5708988    
   4285000   301.49314     -5592.1516      1231.721      -1664.3493     -10.669203    
   4290000   300.19139     -5568.1363      1238.3434     -1645.3523     -11.215467    
   4295000   301.27604     -5574.9459      1213.3884     -1667.4176      10.37353     
   4300000   299.47709     -5619.8861      1174.2465     -1767.5867      30.236364    
   4305000   301.9902      -5597.8352      1238.5569     -1658.752       12.138595    
   4310000   295.93689     -5578.6305      1240.8605     -1691.3751     -16.231188    
   4315000   304.94758     -5635.8344      1262.4449     -1646.4171     -5.6534423    
   4320000   298.72991     -5609.117       1205.4446     -1732.301      -20.74157     
   4325000   305.84036     -5637.5794      1179.6836     -1722.9397      20.577654    
   4330000   298.50292     -5634.9445      1239.0739     -1726.5291     -1.1474691    
   4335000   292.99598     -5604.3057      1166.2575     -1817.9521     -3.5102443    
   4340000   295.57771     -5666.2051      1239.9171     -1783.105       10.278951    
   4345000   303.35762     -5654.8827      1226.0026     -1716.1258     -17.673033    
   4350000   297.99314     -5674.7685      1175.9186     -1834.067      -10.740397    
   4355000   300.27395     -5631.5285      1182.5445     -1763.8052     -22.920595    
   4360000   300.69465     -5651.8858      1208.5319     -1754.413       21.415028    
   4365000   306.55215     -5677.2477      1242.9619     -1692.9646      17.52788     
   4370000   291.54649     -5703.5054      1209.8292     -1886.542       16.782856    
   4375000   302.72506     -5625.5492      1220.6032     -1697.8483      3.1144694    
   4380000   308.62611     -5629.696       1219.9332     -1649.8954      2.3248842    
   4385000   300.61107     -5668.6241      1202.5239     -1777.9067      11.676592    
   4390000   303.54187     -5675.2357      1171.4035     -1789.4302      31.811094    
   4395000   302.26287     -5637.9459      1151.5961     -1783.3852     -1.3079888    
   4400000   302.83564     -5668.9744      1231.4936     -1729.3942      5.3055512    
   4405000   297.19658     -5620.5352      1229.3395     -1733.5361      28.397688    
   4410000   302.36583     -5608.8178      1235.1952     -1669.7372     -2.328585     
   4415000   302.16529     -5603.2782      1225.836      -1675.3502     -8.3574609    
   4420000   300.9262      -5599.9242      1181.0073     -1727.9054      11.760088    
   4425000   295.91966     -5651.5532      1240.2295     -1765.0829     -6.1615136    
   4430000   299.90687     -5607.1337      1209.8325     -1715.405       1.992056     
   4435000   309.88962     -5616.5648      1206.6841     -1638.7144      8.1132813    
   4440000   300.55846     -5634.0171      1218.2491     -1728.0449     -17.23558     
   4445000   303.59366     -5646.9188      1230.7536     -1701.3001     -7.0564103    
   4450000   303.11651     -5682.8313      1246.3194     -1725.9137      21.993759    
   4455000   304.55052     -5662.4254      1219.7256     -1719.278      -5.3574011    
   4460000   300.77511     -5629.3467      1231.7157     -1707.9706      4.3927207    
   4465000   294.32729     -5624.3684      1180.1976     -1812.1696     -25.095818    
   4470000   296.86192     -5627.5183      1214.9954     -1757.8559     -3.0716251    
   4475000   294.63342     -5718.0079      1204.2727     -1878.9965     -21.951292    
   4480000   295.52496     -5650.1545      1258.8056     -1748.6376     -11.295221    
   4485000   296.04057     -5600.4884      1173.1008     -1780.0655     -17.639051    
   4490000   296.71584     -5567.7342      1209.2683     -1705.1051     -5.0557064    
   4495000   301.18905     -5718.9086      1198.9747     -1826.5719      7.7373623    
   4500000   300.00311     -5744.5317      1206.908      -1854.8669      32.50372     
   4505000   294.85572     -5615.6784      1208.2524     -1770.6994     -23.156237    
   4510000   303.95634     -5628.0299      1201.8714     -1708.0501     -20.326093    
   4515000   294.84097     -5635.9478      1227.6267     -1771.7263      17.041608    
   4520000   305.59212     -5584.4637      1232.4716     -1619.2559     -2.508178     
   4525000   303.36412     -5652.0908      1191.4779     -1747.8004     -21.373479    
   4530000   304.97795     -5654.9118      1236.9857     -1690.6822     -0.34085261   
   4535000   299.58246     -5595.4361      1233.8389     -1682.602      -15.588899    
   4540000   302.45018     -5618.336       1217.3218     -1696.3746     -26.771082    
   4545000   292.37434     -5587.743       1264.2964     -1708.9095      1.3275242    
   4550000   284.5019      -5627.6917      1202.2308     -1881.3226      3.7431037    
   4555000   308.20705     -5657.6346      1283.468      -1618.0465     -10.828699    
   4560000   300.50771     -5726.1416      1187.6073     -1851.2651      6.0079055    
   4565000   298.24108     -5666.8221      1224.4691     -1775.353       21.229529    
   4570000   299.9699      -5598.8493      1218.5432     -1697.8462     -10.307663    
   4575000   302.60168     -5649.8324      1218.9921     -1724.8459     -4.286577     
   4580000   298.75009     -5487.4795      1239.196      -1576.7317      9.2619272    
   4585000   300.87884     -5528.533       1164.5699     -1673.3752     -10.673697    
   4590000   298.73497     -5548.983       1254.5888     -1622.9776      2.3238049    
   4595000   302.87407     -5604.3744      1215.1051     -1680.839       7.4254407    
   4600000   287.88528     -5596.13        1184.2583     -1837.4777     -18.353986    
   4605000   301.59367     -5649.7214      1212.59       -1740.1511     -19.328479    
   4610000   299.24279     -5572.3651      1197.5895     -1698.8179     -0.27905972   
   4615000   296.7484      -5555.5543      1172.4691     -1729.4334      0.87681117   
   4620000   297.5549      -5541.8762      1203.4632     -1677.5491      44.063392    
   4625000   299.05616     -5556.3301      1238.9398     -1643.1015      2.687008     
   4630000   301.08884     -5565.9407      1201.2953     -1672.1795      10.271134    
   4635000   292.20797     -5580.642       1252.9504     -1714.6422     -1.613706     
   4640000   298.25344     -5673.6804      1162.1388     -1844.431       20.718265    
   4645000   307.62445     -5603.201       1206.0199     -1646.2709      5.5471483    
   4650000   307.26834     -5527.8418      1193.1149     -1587.0013     -7.3271825    
   4655000   308.13756     -5597.9329      1244.695      -1597.7393     -13.333672    
   4660000   298.56609     -5496.7315      1200.6422     -1626.1829     -17.87893     
   4665000   291.76407     -5650.1603      1215.1323     -1825.9482     -11.483254    
   4670000   296.511       -5587.4476      1237.3554     -1698.5633     -7.335888     
   4675000   297.35418     -5591.8514      1203.566      -1729.2165     -0.22047429   
   4680000   305.30116     -5670.906       1235.713      -1705.0587      17.537965    
   4685000   294.91384     -5696.2785      1226.4446     -1832.5875      29.882307    
   4690000   299.64837     -5704.7676      1189.0936     -1836.0894      7.0934529    
   4695000   297.81577     -5652.5829      1255.0133     -1734.373       19.020034    
   4700000   299.15468     -5628.1794      1253.0736     -1699.936       4.5101105    
   4705000   299.12288     -5705.6794      1210.0872     -1820.7068      2.5352379    
   4710000   301.40804     -5597.1489      1238.8919     -1662.9367      8.9665735    
   4715000   299.01217     -5684.3527      1219.0261     -1791.4312     -9.2954852    
   4720000   300.8061      -5574.7089      1239.4166     -1645.3548     -13.915694    
   4725000   299.86809     -5564.7272      1237.6899     -1645.4879     -4.2423893    
   4730000   297.34571     -5704.0321      1167.4796     -1877.5593     -16.597549    
   4735000   298.39654     -5592.5949      1202.2002     -1722.0045     -4.9999284    
   4740000   297.02397     -5734.8132      1201.2658     -1877.4313     -2.4234556    
   4745000   300.87951     -5611.6095      1226.6814     -1694.3341     -11.563305    
   4750000   305.82116     -5603.4859      1222.6067     -1646.0948     -7.6484576    
   4755000   307.01955     -5634.4665      1208.2125     -1680.7532      6.005567     
   4760000   300.89902     -5656.4483      1179.3525     -1786.3273     -1.8197707    
   4765000   296.12488     -5617.6888      1180.2037     -1789.4091      15.040124    
   4770000   301.67328     -5631.1282      1262.6137     -1670.8223      6.0482001    
   4775000   299.30666     -5648.4892      1228.5244     -1743.4359      10.215372    
   4780000   303.10023     -5554.0302      1204.6101     -1638.9675      0.2986014    
   4785000   298.22628     -5570.4576      1169.7761     -1733.8138      0.44483103   
   4790000   293.45376     -5497.6767      1219.1678     -1654.3191     -13.121647    
   4795000   302.83618     -5493.3829      1234.9982     -1550.2933      2.6636738    
   4800000   288.95349     -5656.2339      1223.0694     -1849.2181      24.687883    
   4805000   310.32648     -5640.8888      1194.6259     -1671.1901      17.708663    
   4810000   299.28012     -5598.8496      1248.8599     -1673.6981     -7.6915135    
   4815000   298.54809     -5587.4744      1205.4162     -1712.3127      16.561978    
   4820000   299.52767     -5611.153       1213.998      -1718.6497     -8.5161757    
   4825000   299.55152     -5590.8925      1203.8976     -1708.2763     -11.73634     
   4830000   297.88908     -5544.3608      1207.4481     -1673.0605      10.171015    
   4835000   295.78126     -5560.682       1176.0654     -1739.6133     -21.039997    
   4840000   299.23512     -5551.6826      1261.8982     -1613.8952     -6.8159529    
   4845000   302.33215     -5533.0604      1211.0584     -1618.4179      11.458782    
   4850000   301.64023     -5529.3239      1212.6996     -1619.2275      16.494049    
   4855000   287.08264     -5545.9315      1242.6569     -1736.0581      5.6245053    
   4860000   311.76563     -5555.4294      1201.09       -1566.397       34.877604    
   4865000   299.33712     -5567.9172      1221.1751     -1669.9408      13.154501    
   4870000   295.87328     -5580.7999      1251.5538     -1683.42        20.034309    
   4875000   302.48286     -5586.8889      1214.669      -1667.2881      6.983775     
   4880000   299.70412     -5495.595       1172.6641     -1642.8477     -18.931257    
   4885000   301.86521     -5529.6504      1214.3884     -1615.8534      8.2335223    
   4890000   308.9797      -5567.148       1193.5499     -1610.5687      4.69329      
   4895000   302.22295     -5576.6284      1210.5258     -1663.495      -1.9066323    
   4900000   302.56117     -5601.9141      1207.951      -1688.3309      36.664789    
   4905000   300.24218     -5608.247       1273.7677     -1649.5846     -1.8361216    
   4910000   293.36598     -5593.2924      1174.2432     -1795.6444      21.590031    
   4915000   296.20114     -5587.4004      1236.9107     -1701.7318     -2.6971674    
   4920000   303.59808     -5615.7747      1204.8433     -1696.0267      13.760884    
   4925000   297.24747     -5504.6106      1224.4204     -1622.0755     -14.674589    
   4930000   305.43907     -5587.6043      1251.3345     -1604.9022      8.6356468    
   4935000   299.79311     -5568.3482      1195.1191     -1692.3501      18.389871    
   4940000   303.31949     -5549.2472      1252.4079     -1584.4259      19.958161    
   4945000   298.82756     -5654.1513      1193.8869     -1788.0199     -17.595467    
   4950000   295.15119     -5592.0266      1202.4625     -1750.1951      9.6875209    
   4955000   300.66252     -5665.6814      1246.0731     -1730.9547     -9.0040213    
   4960000   297.40965     -5584.9861      1168.2193     -1757.2018     -13.274948    
   4965000   295.95208     -5559.8025      1265.6248     -1647.6469     -4.2743078    
   4970000   310.00012     -5617.631       1237.6161     -1607.8604      7.4264211    
   4975000   310.40769     -5632.9762      1221.0712     -1636.106      -22.702572    
   4980000   296.46101     -5574.1065      1190.6903     -1732.3343     -8.391153     
   4985000   301.64757     -5542.8757      1181.3908     -1664.0226      24.614956    
   4990000   304.86797     -5562.7668      1222.8665     -1613.6398     -9.003202     
   4995000   289.91718     -5624.6827      1221.9164     -1810.2021     -9.5911004    
   5000000   300.14892     -5605.2967      1215.2678     -1705.9681     -2.2581239    
   5005000   302.28577     -5599.4895      1141.8589     -1754.4612     -5.2856526    
   5010000   302.54466     -5573.9531      1273.0093     -1595.4593      13.427435    
Loop time of 10065.2 on 18 procs for 5000000 steps with 3001 atoms

Performance: 1287.602 ns/day, 0.019 hours/ns, 496.760 timesteps/s
99.4% CPU use with 18 MPI tasks x 1 OpenMP threads

MPI task timing breakdown:
Section |  min time  |  avg time  |  max time  |%varavg| %total
---------------------------------------------------------------
Pair    | 67.755     | 844.99     | 3464.5     |3376.2 |  8.40
Bond    | 20.881     | 76.342     | 237.57     | 736.1 |  0.76
Neigh   | 3752.1     | 3772.7     | 3804.3     |  29.5 | 37.48
Comm    | 2238.7     | 5167.8     | 6056.6     |1536.6 | 51.34
Output  | 31.21      | 31.304     | 31.358     |   0.8 |  0.31
Modify  | 23.697     | 80.302     | 250        | 746.6 |  0.80
Other   |            | 91.76      |            |       |  0.91

Nlocal:        166.722 ave         553 max          18 min
Histogram: 8 0 1 7 0 0 0 0 0 2
Nghost:           5010 ave        5877 max        3384 min
Histogram: 2 0 0 0 5 3 0 0 0 8
Neighs:        4287.61 ave       16978 max          70 min
Histogram: 8 0 3 5 0 0 0 0 0 2
FullNghs:      8575.22 ave       33960 max         206 min
Histogram: 8 0 4 4 0 0 0 0 0 2

Total # of neighbors = 154354
Ave neighs/atom = 51.434189
Ave special neighs/atom = 3.5988004
Neighbor list builds = 500000
Dangerous builds = 500000
Total wall time: 2:47:53
