LAMMPS (23 Jun 2022)
OMP_NUM_THREADS environment is not set. Defaulting to 1 thread. (src/src/comm.cpp:98)
  using 1 OpenMP thread(s) per MPI task
Created orthogonal box = (0 0 0) to (150 150 150)
  2 by 3 by 3 MPI processor grid
Read molecule template lig:
  1 molecules
  0 fragments
  5 atoms with max type 2
  4 bonds with max type 1
  3 angles with max type 1
  0 dihedrals with max type 0
  0 impropers with max type 0
Created 1 atoms
  using box units in orthogonal box = (0 0 0) to (150 150 150)
  create_atoms CPU = 0.000 seconds
Created 500 atoms
  using lattice units in orthogonal box = (0 0 0) to (150 150 150)
  create_atoms CPU = 0.004 seconds
Finding 1-2 1-3 1-4 neighbors ...
  special bond factors lj:    0        1        1       
  special bond factors coul:  0        0        0       
     2 = max # of 1-2 neighbors
     2 = max # of 1-3 neighbors
     2 = max # of 1-4 neighbors
     7 = max # of special neighbors
  special bonds CPU = 0.001 seconds
500 atoms in group ligands
Generated 0 of 6 mixed pair_coeff terms from geometric mixing rule
Neighbor list info ...
  update every 1 steps, delay 10 steps, check yes
  max neighbors/atom: 2000, page size: 100000
  master list distance cutoff = 60
  ghost atom cutoff = 60
  binsize = 30, bins = 5 5 5
  1 neighbor lists, perpetual/occasional/extra = 1 0 0
  (1) pair lj/expand, perpetual
      attributes: half, newton on
      pair build: half/bin/newton
      stencil: half/bin/3d
      bin: standard
Setting up Verlet run ...
  Unit style    : real
  Current step  : 0
  Time step     : 30
Per MPI rank memory allocation (min/avg/max) = 8.062 | 8.083 | 8.336 Mbytes
   Step          Temp          E_pair         E_mol          TotEng         Press     
         0   0              238525.05      6.1702991e-26  238525.05      19411.536    
      5000   140.69703     -63.480691      109.36486      255.57973     -3.8816488    
     10000   143.67942     -79.57688       104.39247      238.95612     -3.1366133    
Loop time of 0.732619 on 18 procs for 10000 steps with 501 atoms

Performance: 35379.900 ns/day, 0.001 hours/ns, 13649.653 timesteps/s
98.8% CPU use with 18 MPI tasks x 1 OpenMP threads

MPI task timing breakdown:
Section |  min time  |  avg time  |  max time  |%varavg| %total
---------------------------------------------------------------
Pair    | 0.010023   | 0.018926   | 0.03286    |   4.7 |  2.58
Bond    | 0.013642   | 0.019435   | 0.029275   |   3.1 |  2.65
Neigh   | 0.094269   | 0.095338   | 0.096558   |   0.2 | 13.01
Comm    | 0.51927    | 0.55341    | 0.57429    |   2.0 | 75.54
Output  | 6.2016e-05 | 6.5931e-05 | 8.0524e-05 |   0.0 |  0.01
Modify  | 0.018916   | 0.025972   | 0.037346   |   3.3 |  3.55
Other   |            | 0.01947    |            |       |  2.66

Nlocal:        27.8333 ave          41 max          13 min
Histogram: 1 1 4 1 0 4 1 2 2 2
Nghost:        823.778 ave         902 max         766 min
Histogram: 2 0 3 3 5 2 1 1 0 1
Neighs:        52.7778 ave         116 max          15 min
Histogram: 3 1 6 1 1 3 1 1 0 1

Total # of neighbors = 950
Ave neighs/atom = 1.8962076
Ave special neighs/atom = 3.5928144
Neighbor list builds = 909
Dangerous builds = 0
1 atoms in group nps
100 atoms in group amines
Generated 0 of 6 mixed pair_coeff terms from geometric mixing rule
Neighbor list info ...
  update every 1 steps, delay 10 steps, check yes
  max neighbors/atom: 2000, page size: 100000
  master list distance cutoff = 60
  ghost atom cutoff = 60
  binsize = 30, bins = 5 5 5
  2 neighbor lists, perpetual/occasional/extra = 1 1 0
  (1) pair lj/expand, perpetual
      attributes: half, newton on
      pair build: half/bin/newton
      stencil: half/bin/3d
      bin: standard
  (2) compute coord/atom, occasional
      attributes: full, newton on
      pair build: full/bin
      stencil: full/bin/3d
      bin: standard
Setting up Verlet run ...
  Unit style    : real
  Current step  : 10000
  Time step     : 30
Per MPI rank memory allocation (min/avg/max) = 7.441 | 7.561 | 7.717 Mbytes
   Step          Temp          E_pair         E_mol          TotEng         Press     
     10000   143.67942     -79.57688       104.39247      238.95612     -3.1366133    
     15000   294.53824     -106.38441      200.43929      533.03615     -0.54411368   
     20000   305.43136     -120.18716      222.53082      557.56009      7.0792876    
     25000   310.04261     -154.15992      216.93788      524.86703     -5.7760336    
     30000   303.89015     -177.4434       226.28275      501.75876      0.40028664   
     35000   295.30477     -200.91805      220.78564      459.99129     -9.6016782    
     40000   299.00244     -210.87101      215.12162      449.88535      3.2941928    
     45000   292.8494      -243.47831      224.3772       417.36311      2.7495435    
     50000   290.61576     -265.33198      217.43878      385.242        1.7305673    
     55000   295.01229     -268.84261      216.13644      386.98163     -1.1301187    
     60000   302.28703     -281.05957      211.93666      381.40719     -0.82049904   
     65000   313.01302     -301.81593      216.23739      380.93763      0.81527279   
     70000   293.52074     -313.69851      196.97524      320.74151     -1.1921621    
     75000   291.15352     -330.94072      219.9328       322.92875     -0.75425478   
     80000   300.65956     -335.34004      200.33214      313.09662      4.5370233    
     85000   304.68256     -367.24139      209.74334      296.60237      1.1591212    
     90000   289.42841     -393.00982      177.73411      216.08984      5.2225805    
     95000   309.26155     -405.31058      218.36814      273.98252     -1.657811     
    100000   309.88535     -411.78205      215.54761      265.62024     -6.2631205    
    105000   287.59624     -423.76971      215.23193      220.09711      3.9389735    
    110000   281.11904     -451.2011       202.56504      170.34517     -8.6673049    
    115000   302.27094     -460.38421      190.26604      180.38796     -6.5598796    
    120000   290.71588     -460.4565       202.73924      175.56716      8.6975591    
    125000   308.01049     -467.2073       222.32577      214.17885      14.767893    
    130000   304.27798     -484.88633      232.78222      201.39333     -8.0423288    
    135000   312.2196      -497.48969      225.4721       193.31607      3.3593096    
    140000   286.57803     -502.17464      230.33189      155.2746      -3.1732806    
    145000   313.74291     -514.82699      218.61274      171.38975     -6.2093959    
    150000   296.57054     -523.73026      221.43712      139.71708     -0.90103394   
    155000   319.99124     -539.38277      196.59428      134.12807      11.94507     
    160000   292.40662     -549.40223      195.42098      81.823051     -2.7104632    
    165000   291.36688     -546.96907      191.73629      79.021882     -3.073141     
    170000   296.061       -574.44077      237.51564      104.32567     -3.0447301    
    175000   290.84353     -582.93022      222.2546       72.799035      13.209372    
    180000   301.50936     -598.80723      210.48258      61.046419     -1.966438     
    185000   289.64027     -597.98345      200.63413      34.331982      1.7307088    
    190000   287.42192     -620.46771      221.30873      29.216082     -1.7146179    
    195000   306.85031     -630.16772      205.0858       32.249323      0.68302002   
    200000   313.64883     -638.81029      200.76338      29.416882     -0.48978183   
    205000   311.57047     -636.28964      213.42382      41.500383     -9.1918897    
    210000   297.88444     -645.94955      210.99392      9.012848      -2.5024716    
    215000   281.31181     -643.69137      192.31968     -32.10316       14.040439    
    220000   314.92069     -646.73979      193.68841      16.308007     -4.5474005    
    225000   303.89408     -643.01802      193.84638      3.7536185      4.4411432    
    230000   299.52616     -669.32221      227.78676      4.8798544     -2.7633964    
    235000   307.24906     -669.48316      196.39006     -15.167553      1.2298944    
    240000   303.23198     -682.67532      210.6505      -20.086361     -0.10481172   
    245000   313.86874     -700.29214      220.46792     -12.032678     -3.5780311    
    250000   314.52231     -693.26012      220.57851     -3.9159858      6.5083826    
    255000   306.52903     -703.96988      218.23837     -28.879103      1.5331377    
    260000   294.77122     -703.88578      196.2783      -68.27897      -4.288835     
    265000   308.70152     -708.54431      214.26062     -34.193384      1.082464     
    270000   289.36103     -689.92293      205.6466      -53.011184     -1.1413923    
    275000   312.10366     -693.40864      216.41626     -11.831515      6.16976      
    280000   287.17892     -698.25123      204.06979     -66.168528     -3.9206667    
    285000   283.84737     -695.85791      188.67166     -84.138701      13.90933     
    290000   289.2172      -705.95954      216.21338     -58.695387      0.65934955   
    295000   285.30415     -700.48302      219.31043     -55.953843      4.6195915    
    300000   309.18776     -714.32931      204.87219     -48.642134      17.310555    
    305000   295.18948     -718.16925      203.26991     -74.947462      1.3655536    
    310000   294.5985      -713.06328      194.49988     -79.492314     -7.0736843    
    315000   289.03908     -718.69592      193.6242      -94.286426     -5.7597029    
    320000   288.78523     -719.61666      199.35206     -89.85764       1.3492449    
    325000   296.52267     -719.69421      207.45503     -70.300296      2.9469792    
    330000   301.29815     -713.76803      200.84607     -63.865689      0.28881386   
    335000   291.41133     -729.51407      207.17349     -88.019662      3.5390457    
    340000   309.74758     -709.02606      222.9919      -24.384819      10.038561    
    345000   302.35825     -720.90661      197.56911     -72.701243      6.4877329    
    350000   300.22384     -716.43134      220.63286     -48.343371     -5.0403945    
    355000   296.64001     -737.00654      215.05111     -79.841665     -6.0115158    
    360000   293.59645     -729.40491      225.52985     -66.297437      6.5921922    
    365000   307.83847     -731.68228      234.49797     -38.380301      7.8364646    
    370000   287.26976     -741.61021      215.44949     -98.012429     -8.3123788    
    375000   298.75558     -736.8158       206.99702     -84.551966      6.0118332    
    380000   298.59835     -728.33534      202.49986     -80.803003     -2.4739823    
    385000   305.3557      -741.28178      203.55158     -82.626529     -4.364169     
    390000   302.19371     -734.79325      198.12778     -86.27444       6.6052109    
    395000   317.45341     -762.48854      208.48438     -80.870002     -13.748429    
    400000   298.83628     -770.11794      200.48007     -124.25079     -1.4184346    
    405000   305.77645     -763.47474      204.69258     -103.05141     -7.0757445    
    410000   316.24407     -768.68559      216.3074      -81.046437     -0.47513596   
    415000   313.91931     -766.60076      225.90456     -72.829278      1.2658642    
    420000   307.96805     -773.0754       206.08697     -107.9913      -4.4230139    
    425000   282.603       -765.76172      215.3886      -129.18019     -1.1100305    
    430000   297.3063      -767.91091      223.43737     -101.36673      3.7855176    
    435000   298.82526     -763.28023      203.2111      -114.69845     -0.29748552   
    440000   292.39008     -749.06405      233.83192     -79.45248       4.3008816    
    445000   308.20689     -749.15896      230.87386     -58.931994      5.8494326    
    450000   290.86529     -764.92294      218.5887      -112.82715      13.932049    
    455000   315.01358     -763.10772      205.63915     -87.97074       6.8309326    
    460000   294.99147     -758.13335      230.99017     -87.486418     -3.8845899    
    465000   310.44061     -755.80127      209.1847      -83.934316      10.141335    
    470000   310.13321     -770.47802      202.39778     -105.85613      4.1273675    
    475000   300.1471      -762.08313      208.0809      -106.66149      1.1902788    
    480000   293.73198     -766.83464      212.07552     -116.9795       2.5386569    
    485000   292.66547     -764.96562      207.91755     -120.85798      0.25822812   
    490000   288.07259     -774.8671       211.78671     -133.73555      8.5285628    
    495000   314.23127     -754.1079       212.61783     -73.158193     -8.7040638    
    500000   286.94586     -775.63817      198.59422     -149.3784       10.921214    
    505000   300.11236     -771.71084      219.88591     -104.53596      1.1351936    
    510000   308.85497     -770.07114      214.49925     -95.252879      7.3671979    
    515000   295.20733     -778.20603      180.11115     -158.11639     -9.1543465    
    520000   298.32476     -780.05914      218.7381      -116.69632      2.6936772    
    525000   295.72592     -780.92829      225.00894     -115.16796     -1.935385     
    530000   306.59331     -787.47901      212.26239     -118.26841     -10.720589    
    535000   287.77413     -774.27411      199.64884     -145.72526     -0.4770237    
    540000   311.74627     -792.96375      201.59116     -126.74438     -0.57310788   
    545000   291.0597      -777.50786      204.70834     -139.00269     -11.81203     
    550000   284.82297     -788.26998      204.27197     -159.49642     -2.0187154    
    555000   307.78377     -789.26879      203.6093      -126.93702      0.34589921   
    560000   302.54494     -790.37199      211.16636     -128.29113      0.22020637   
    565000   291.98152     -793.16204      215.59776     -142.39356      9.3128381    
    570000   308.13042     -821.10146      203.71622     -158.14611      5.5541037    
    575000   310.53831     -811.08802      220.22813     -128.03203     -3.4381686    
    580000   304.18093     -805.60946      209.98236     -142.27432     -5.7263733    
    585000   306.28241     -810.78005      197.46371     -156.8315      -3.9532456    
    590000   314.06046     -815.71319      193.0342      -154.6017       13.155308    
    595000   287.92599     -820.2298       211.99202     -179.11144     -7.2795884    
    600000   310.87406     -814.06832      202.83298     -147.90709     -4.3864095    
    605000   310.73471     -806.2604       218.63991     -124.49993     -4.5637741    
    610000   305.19825     -807.64246      204.298       -148.47546      3.2933981    
    615000   306.31171     -812.26099      214.04989     -141.68259      3.7895849    
    620000   306.14659     -804.30548      211.26513     -136.75793      2.7470831    
    625000   299.46095     -808.61168      207.41827     -154.8753       17.705126    
    630000   302.43864     -804.8131       207.6544      -146.40263      3.3900449    
    635000   295.85455     -806.84694      214.29399     -151.60985     -15.455193    
    640000   286.16727     -809.03412      219.13621     -163.39277      4.2049435    
    645000   305.82036     -802.09189      216.4014      -129.89429     -0.60142434   
    650000   303.55796     -818.58057      216.28094     -149.87533      8.6034204    
    655000   287.5375      -802.42222      219.50124     -154.37364     -14.401791    
    660000   294.94461     -804.54546      205.99809     -158.96044     -12.932719    
    665000   301.20147     -794.72314      202.90173     -142.90922      0.12982352   
    670000   291.19587     -808.54066      216.61442     -157.92645      6.3539049    
    675000   305.64087     -805.26514      209.09438     -140.64208     -9.2531324    
    680000   285.98088     -806.61146      214.77256     -165.61155     -9.6056164    
    685000   308.31622     -786.80881      224.12328     -103.16948      8.4316776    
    690000   289.57513     -803.91301      212.19901     -160.12978     -0.03850772   
    695000   283.59859     -819.13187      208.41349     -188.04161     -1.2014087    
    700000   315.61811     -813.27257      207.91175     -134.96201     -0.053581225  
    705000   302.65938     -815.07849      224.8382      -139.15523     -0.96625705   
    710000   295.83022     -822.11916      212.36196     -168.85036     -1.4086401    
    715000   286.19499     -807.85742      203.47206     -177.83891     -6.9404801    
    720000   301.80209     -811.60065      208.41218     -153.38112     -2.3020085    
    725000   298.61163     -817.67317      199.49019     -173.1307      -2.1521585    
    730000   328.88275     -830.58718      211.70375     -128.71493      1.5761202    
    735000   300.12105     -815.37199      204.29674     -163.77332     -7.8112294    
    740000   290.80223     -821.93351      201.52795     -186.99246      8.932649     
    745000   301.51425     -813.49381      229.7038      -134.41165     -9.285947     
    750000   299.6887      -818.69875      202.80702     -169.23417      6.3816732    
    755000   325.25964     -813.60064      210.76068     -118.07136      5.0347231    
    760000   308.42284     -818.50654      204.13196     -154.69963      3.1745235    
    765000   302.66067     -824.15159      226.93628     -146.12831      10.647351    
    770000   281.84266     -813.19818      216.56617     -176.5723       5.6543939    
    775000   317.58416     -831.24382      204.9072      -153.00759     -7.6299751    
    780000   296.72858     -819.75652      211.74124     -165.76951      8.3592118    
    785000   287.22903     -826.44435      210.10453     -188.25223      4.9885392    
    790000   283.31219     -803.54596      200.34257     -180.95348      12.554097    
    795000   293.55248     -803.0537       231.95963     -133.58197     -4.2707713    
    800000   272.85953     -815.15455      211.6322      -196.85114     -2.4834609    
    805000   307.06593     -811.28596      210.40494     -143.2284       1.5072776    
    810000   297.26708     -800.57478      215.07035     -142.45608      15.558795    
    815000   283.29216     -813.06997      207.40844     -183.44148     -3.8637529    
    820000   297.43775     -814.62626      204.18573     -167.13782      9.6851996    
    825000   281.23303     -813.83053      198.22401     -196.4554       0.53379019   
    830000   300.4716      -802.73278      199.46912     -155.43927      1.8912522    
    835000   299.30818     -802.37991      206.78955     -149.49995     -9.0753849    
    840000   316.86554     -803.24256      181.04345     -149.94111     -11.464289    
    845000   299.10435     -797.22396      217.46119     -133.97614      3.3155614    
    850000   299.28871     -816.2063       213.63528     -156.50962      4.2431315    
    855000   303.40206     -803.72721      225.57353     -125.96173      0.91610496   
    860000   285.06216     -804.0895       213.81797     -165.41345     -3.0107152    
    865000   294.37758     -816.31173      217.57055     -159.99936      0.91479704   
    870000   301.19092     -794.26965      221.83796     -123.53523     -1.8272303    
    875000   300.95994     -804.59519      211.29908     -144.74391     -5.4170778    
    880000   314.90602     -809.52503      210.17015     -130.01737     -1.3866736    
    885000   279.9258      -809.64739      216.45098     -175.9936       9.6697062    
    890000   318.89771     -807.26642      202.70401     -129.27566     -10.550262    
    895000   297.28142     -807.88604      218.05491     -146.76141      4.4596868    
    900000   300.12556     -811.33639      218.91062     -145.11712      2.003367     
    905000   318.21989     -811.19491      224.31186     -112.60652     -4.5846434    
    910000   295.68806     -798.19525      218.74527     -138.755       -1.1346271    
    915000   294.75886     -810.71499      209.20557     -162.19933     -3.0071765    
    920000   290.0434      -796.02594      211.60305     -152.14074      2.4376274    
    925000   302.77093     -792.9419       203.96214     -137.72845     -14.685232    
    930000   308.33439     -806.1108       188.54819     -158.01948     -5.5275328    
    935000   295.43845     -800.88404      228.52825     -132.03284     -2.1780121    
    940000   319.78704     -819.27653      209.24866     -133.41566      7.7251381    
    945000   326.5773      -809.08786      212.95878     -109.39663     -13.295774    
    950000   287.30865     -798.49911      194.03902     -176.25385      5.273601     
    955000   279.88303     -792.21264      207.20761     -167.86594     -14.672415    
    960000   305.76421     -800.63237      213.09475     -131.82511      21.536178    
    965000   297.53931     -788.97957      229.31011     -116.21537     -5.7792043    
    970000   304.83513     -802.11392      206.6764      -141.10971      0.067795133  
    975000   302.08389     -801.72999      227.15411     -124.34853      2.7635348    
    980000   276.70623     -790.8924       191.14608     -187.34196     -5.7934386    
    985000   295.76483     -795.52654      219.9364      -134.78075     -5.3832431    
    990000   302.74528     -792.32905      227.67215     -113.44381     -0.22989072   
    995000   310.53545     -795.32944      197.01069     -135.49516     -17.88677     
   1000000   290.88395     -799.71469      211.45956     -154.72023      0.24610858   
   1005000   276.96973     -808.10003      204.28934     -191.0136       2.0142368    
   1010000   303.33796     -810.86187      194.99288     -163.77257      4.578348     
   1015000   282.59023     -798.02221      218.43066     -158.41766      6.8701014    
   1020000   297.92911     -788.69271      198.68095     -145.97672      8.2244103    
   1025000   296.72437     -796.84825      206.75562     -147.85314     -2.7964686    
   1030000   307.13028     -807.54768      231.06105     -118.73811     -17.768226    
   1035000   316.19009     -810.45167      203.78733     -135.41303     -8.1412444    
   1040000   295.26499     -815.19572      217.41385     -157.71745     -12.016277    
   1045000   320.20244     -799.12182      208.05824     -113.83225      9.0112526    
   1050000   296.2761      -797.15655      238.88356     -116.7016      -3.2511435    
   1055000   289.09385     -803.58068      195.19249     -177.52127     -6.1210745    
   1060000   284.73413     -797.15232      211.9023      -160.88084     -13.257188    
   1065000   293.98112     -808.33747      218.55675     -151.62977     -2.6781785    
   1070000   295.50526     -801.27168      215.87192     -144.97723      1.3910438    
   1075000   281.0927      -803.1109       206.33964     -177.82928      9.7703875    
   1080000   293.01609     -800.17043      192.9811      -170.47668      6.4777382    
   1085000   291.80109     -806.31601      214.20265     -157.21154      3.1747585    
   1090000   287.20257     -800.5932       230.563       -141.98203     -5.3259605    
   1095000   302.53294     -806.97477      222.59396     -133.4842       4.4485562    
   1100000   286.3552      -801.92633      205.94184     -169.19926      9.1738377    
   1105000   296.96364     -791.68915      201.53216     -147.56089      0.29774242   
   1110000   309.60223     -789.23472      184.79934     -143.00266      6.4255614    
   1115000   296.56602     -786.29231      226.70424     -117.58459     -10.749141    
   1120000   303.24543     -791.5972       206.27933     -133.35936     -6.3969207    
   1125000   305.73063     -788.7605       211.43786     -121.66018      4.7601921    
   1130000   301.98517     -781.78435      213.44716     -118.25697     -16.94385     
   1135000   302.6232      -797.95206      213.45026     -133.47067     -4.635648     
   1140000   285.43575     -789.83659      203.18038     -161.24133     -9.0563267    
   1145000   308.80317     -810.66482      218.74862     -131.67441      1.2816394    
   1150000   332.23498     -794.37811      215.45529     -83.758137      1.7927751    
   1155000   306.90057     -799.72473      216.58499     -125.73359     -3.4717792    
   1160000   299.57526     -785.20696      207.23053     -131.48796      6.7738172    
   1165000   310.59656     -780.44334      204.74218     -112.78649      7.1226998    
   1170000   287.29647     -793.2957       219.72455     -145.38305     -3.2618813    
   1175000   285.19824     -781.27878      231.57778     -124.64012     -1.9583861    
   1180000   302.61436     -785.54611      201.93729     -132.59086     -2.6549897    
   1185000   283.34558     -797.29263      218.16157     -156.83138      1.5815236    
   1190000   309.71115     -794.24792      209.14203     -123.51084     -1.9236507    
   1195000   307.02693     -804.80736      217.75704     -129.45584      0.40689411   
   1200000   301.94352     -800.03228      196.96245     -153.05169     -0.80851522   
   1205000   304.28918     -810.74061      199.8541      -157.37238      15.760015    
   1210000   322.53994     -803.89467      233.01181     -90.167701      15.038064    
   1215000   296.4761      -798.39314      218.34961     -138.17406      3.2193791    
   1220000   303.51589     -802.39903      209.36562     -140.6718       0.39196904   
   1225000   302.14787     -800.58506      215.97499     -134.28736      5.5061965    
   1230000   288.29433     -807.13875      208.41824     -169.04519     -3.3562536    
   1235000   312.12661     -793.15463      187.94587     -140.01369     -0.099767013  
   1240000   311.41205     -800.02304      198.23129     -137.66166      5.1485535    
   1245000   287.25654     -810.36162      214.79213     -167.44091      15.80657     
   1250000   297.00559     -798.99991      198.60932     -157.73196      6.3278747    
   1255000   303.35119     -796.79274      214.87402     -129.80258     -0.80246659   
   1260000   280.69541     -788.16891      221.01391     -148.80515     -11.198885    
   1265000   313.00447     -801.87967      208.81509     -126.56115      0.23209116   
   1270000   294.37014     -802.46486      209.71476     -154.01936     -9.8259917    
   1275000   296.26919     -803.77308      199.3088      -162.90319     -5.9528299    
   1280000   285.05109     -803.80328      186.60665     -192.35505      5.238444     
   1285000   304.8455      -798.62267      212.8136      -131.46581     -2.1487507    
   1290000   285.42429     -796.77672      189.01631     -182.36262     -0.036855113  
   1295000   299.06817     -817.68562      208.03028     -163.92264     -4.4328321    
   1300000   288.60755     -801.55914      213.0879      -158.32909     -0.32788769   
   1305000   271.92458     -800.74802      214.38496     -181.0853      -5.1051989    
   1310000   301.86705     -794.58003      220.61011     -124.06575     -10.153111    
   1315000   279.46412     -802.80803      221.02764     -165.26566     -9.8574197    
   1320000   294.62049     -800.6832       201.13561     -160.44373     -2.800064     
   1325000   308.77647     -794.7522       215.34506     -119.20514      0.7711507    
   1330000   319.13084     -800.81726      201.75828     -123.42477      3.6646348    
   1335000   288.90017     -803.3475       214.03944     -158.7298       5.3849916    
   1340000   290.77926     -797.32464      218.75239     -145.19339      1.8431391    
   1345000   306.48297     -811.94259      212.22965     -142.92918      3.4223285    
   1350000   292.83743     -792.37822      200.14318     -155.78867     -0.3901639    
   1355000   300.13111     -790.71576      190.37015     -153.02869     -1.4215572    
   1360000   298.65368     -797.87922      231.5662      -121.19807     -0.39466581   
   1365000   298.7022      -797.48634      193.17729     -159.1218      -1.1029756    
   1370000   296.30333     -790.89731      214.18606     -135.09928     -5.5490034    
   1375000   313.57283     -790.81028      209.96608     -113.49367      2.077645     
   1380000   302.81595     -784.09956      212.517       -120.26416     -5.055624     
   1385000   302.68115     -793.4732       201.59212     -140.76358     -3.2830963    
   1390000   294.57162     -794.87821      194.1752      -161.67197      1.3779362    
   1395000   324.8578      -783.11059      202.30757     -96.633316     -0.8159022    
   1400000   306.05879     -787.56151      231.61398     -99.795966      7.0502802    
   1405000   282.79764     -801.19158      196.59447     -183.11409     -3.1091134    
   1410000   293.4166      -803.48833      225.22779     -140.95097     -3.7013104    
   1415000   304.50554     -815.82743      198.19784     -163.793        2.4749112    
   1420000   305.81982     -808.8413       209.55845     -143.48746      15.248409    
   1425000   299.35404     -804.47499      210.70678     -147.60944     -7.9163673    
   1430000   295.95027     -800.20488      221.21098     -137.90814      10.435764    
   1435000   297.3862      -807.31158      211.3295      -152.7562       1.0423058    
   1440000   293.07037     -810.49905      217.07691     -156.62859     -2.3551445    
   1445000   312.10195     -808.67163      219.09652     -124.41679      1.8055548    
   1450000   293.89387     -806.3237       206.9172      -161.3856      -3.5288047    
   1455000   279.65962     -804.45131      197.96459     -189.68062     -3.107847     
   1460000   284.02827     -811.78118      212.94688     -175.51713     -3.4467015    
   1465000   283.18624     -811.65222      215.4024      -174.18762      6.657812     
   1470000   284.23695     -812.15909      186.46721     -202.06371      3.4280213    
   1475000   290.4685      -800.67393      196.40958     -171.34865      0.80584245   
   1480000   304.80314     -814.34894      201.35895     -158.70986     -1.6639989    
   1485000   305.51761     -798.68278      201.89817     -141.43963     -2.5318667    
   1490000   296.68442     -806.33008      215.74773     -148.4024       16.119928    
   1495000   289.67659     -809.08331      194.82068     -182.52719     -1.1032208    
   1500000   287.85333     -804.00539      200.47522     -174.51212     -5.8553131    
   1505000   311.39562     -806.07699      202.76529     -139.2061      -10.088455    
   1510000   319.55919     -807.96949      213.45608     -118.24079     -1.9028984    
   1515000   298.81374     -816.59836      201.05383     -170.19103     -7.8791015    
   1520000   292.47424     -825.51928      219.57261     -170.0416      -4.1113772    
   1525000   290.69174     -813.54092      172.69105     -207.60144      0.84361202   
   1530000   291.21603     -832.21837      219.55679     -178.63175      3.7446112    
   1535000   275.56546     -813.49569      210.18269     -192.60885     -3.9075188    
   1540000   283.19128     -819.34876      208.0302      -189.24885     -4.7307791    
   1545000   301.11138     -814.531        223.31636     -142.43673      5.7242061    
   1550000   288.73025     -818.91023      200.91797     -187.66725      6.7473338    
   1555000   309.82732     -812.84317      203.94098     -147.13399      8.7599258    
   1560000   310.04562     -813.96806      208.10194     -143.77257     -4.4054926    
   1565000   294.50734     -816.16986      217.37107     -159.86357     -6.963957     
   1570000   294.64678     -812.11553      221.82023     -151.15226      15.621149    
   1575000   304.72118     -822.71382      191.31651     -177.23933     -2.7467442    
   1580000   297.65561     -805.07531      224.21342     -137.23447     -7.2089216    
   1585000   309.13547     -826.27139      203.27938     -162.25496     -1.7832514    
   1590000   297.76292     -815.29997      216.19235     -155.32028     -16.278044    
   1595000   288.82786     -823.72353      223.81447     -169.43856     -3.9136805    
   1600000   291.36668     -812.91644      232.00551     -146.65656     -2.3848911    
   1605000   312.63802     -827.10951      224.93644     -136.21579     -1.1108654    
   1610000   292.32794     -818.76547      215.76394     -167.3145       5.1041276    
   1615000   300.67591     -812.52558      210.59336     -153.80334      4.0661081    
   1620000   310.39144     -821.50443      200.75312     -158.14234     -1.9083435    
   1625000   306.09532     -808.96406      209.27699     -143.48107     -11.051077    
   1630000   295.06183     -821.44035      221.02378     -160.65495     -9.5544785    
   1635000   295.95994     -815.93116      232.77069     -142.06029      1.9368323    
   1640000   303.34991     -815.38272      201.06004     -162.20846     -3.8231835    
   1645000   287.60971     -818.18632      207.4985      -182.03286      8.2457746    
   1650000   304.01194     -808.91963      220.99113     -134.82758      2.818955     
   1655000   287.63007     -822.36557      191.71385     -201.96643      0.82834838   
   1660000   300.4687      -817.07992      200.15814     -169.10172      0.32201291   
   1665000   309.6017      -824.23561      204.79658     -158.0071      -9.4147728    
   1670000   305.67847     -818.22689      226.17753     -136.46462      15.1199      
   1675000   309.80562     -816.76192      223.22854     -131.79752      6.6096064    
   1680000   282.13412     -826.68701      204.89777     -201.29513     -8.5725075    
   1685000   302.87551     -816.52831      230.80389     -134.31724     -2.7022297    
   1690000   291.44475     -817.17862      203.96721     -178.8407      -1.7382161    
   1695000   297.32318     -815.03341      210.64613     -161.25532     -1.2922971    
   1700000   303.6076      -817.32349      182.26725     -182.55795     -0.59091097   
   1705000   307.87181     -819.00534      189.53872     -170.61293     -9.2234386    
   1710000   293.31501     -817.16867      216.59314     -163.41736     -4.4646326    
   1715000   281.93212     -829.56102      200.08854     -209.27943      5.8647301    
   1720000   312.37611     -825.47338      234.49873     -125.40773      21.837186    
   1725000   320.96944     -824.96702      205.82012     -140.77244     -3.3827127    
   1730000   292.08432     -821.12649      206.54781     -179.25475      9.3076592    
   1735000   299.31159     -813.57398      217.3477      -150.13078     -15.070916    
   1740000   313.37738     -814.0376       208.91588     -138.0625       5.0272153    
   1745000   309.73047     -827.02373      225.50642     -139.89346      5.148155     
   1750000   295.59986     -812.77543      214.71481     -157.49711      6.5782875    
   1755000   304.07219     -814.19583      204.36346     -156.64164      1.8215763    
   1760000   288.03779     -816.2084       218.8512      -168.06423      9.4514049    
   1765000   294.64647     -814.16564      195.03162     -179.99144     -11.254751    
   1770000   297.6107      -818.78223      197.58235     -177.63939     -13.686467    
   1775000   321.85097     -816.04236      214.31098     -122.04308      8.3805178    
   1780000   308.49172     -814.87392      221.07335     -134.02296     -5.1825559    
   1785000   296.41688     -813.16592      204.62877     -166.75594      6.1917989    
   1790000   288.15731     -819.203        211.26469     -178.46721      2.7917463    
   1795000   294.72446     -814.91648      221.81197     -153.84569     -3.7563434    
   1800000   294.10977     -817.43518      214.26669     -164.8258       0.96277764   
   1805000   309.61586     -815.9626       190.43303     -164.07653     -1.9480659    
   1810000   299.03423     -806.8721       205.64435     -155.54563      9.180812     
   1815000   310.43385     -810.8212       206.15379     -141.99524     -1.8095728    
   1820000   311.99408     -806.44602      197.03918     -144.40929     -2.4088882    
   1825000   295.40337     -811.0444       210.87187     -159.90185     -1.5593985    
   1830000   282.07192     -816.72564      193.13826     -203.18596     -4.2059494    
   1835000   307.96561     -834.15568      220.2883      -154.87389     -4.2486369    
   1840000   296.81548     -826.46621      208.23561     -175.85533      1.3473523    
   1845000   305.02147     -832.83878      218.57879     -159.65445      6.2752647    
   1850000   296.66048     -806.00003      220.84128     -143.01448     -10.957313    
   1855000   287.65233     -821.84504      218.91064     -174.21593     -9.1440902    
   1860000   296.3695      -815.17316      215.41319     -158.04937     -5.528212     
   1865000   316.44852     -822.88974      198.82995     -152.42333     -6.8518462    
   1870000   289.55013     -813.07295      225.02074     -156.50523      4.8830112    
   1875000   294.23179     -824.52446      203.0295      -182.97042      5.0430966    
   1880000   299.48439     -811.92818      180.12361     -185.45152      9.1510309    
   1885000   288.98523     -809.7362       191.12138     -187.90978     -10.288653    
   1890000   309.89152     -817.81729      198.53692     -157.41649     -4.8091092    
   1895000   321.43236     -822.69787      218.98112     -124.65235      7.6052157    
   1900000   289.81343     -807.12947      199.80511     -175.38497     -6.2064339    
   1905000   283.71521     -815.39689      209.86928     -182.67704     -7.9587737    
   1910000   298.45968     -806.45905      189.27188     -172.36136     -2.9948464    
   1915000   300.97283     -818.35033      199.62653     -170.15238      1.3624967    
   1920000   281.74733     -808.75594      202.83669     -186.00162     -1.3334367    
   1925000   290.11793     -805.06553      220.85403     -151.81827     -9.5664139    
   1930000   298.39395     -819.836        217.62669     -157.48147     -8.1197403    
   1935000   286.3346      -814.08778      193.38784     -193.94542      2.1703069    
   1940000   284.12025     -800.4202       187.28028     -189.68566      20.009767    
   1945000   312.21608     -818.41745      201.81576     -151.27328      8.1328138    
   1950000   304.25241     -812.04811      219.4027      -139.18609     -1.7267384    
   1955000   299.33768     -826.86966      212.9384      -167.79688      6.2306822    
   1960000   299.94047     -812.47108      226.06624     -139.37205     -3.9696114    
   1965000   292.73117     -809.70292      211.19563     -162.21928      1.4651825    
   1970000   302.15123     -817.28834      197.37963     -169.581        6.8730528    
   1975000   282.01609     -804.40737      200.86619     -183.22297     -3.3825       
   1980000   297.26801     -806.63051      219.6148      -143.96597     -4.0715076    
   1985000   292.6367      -819.44365      208.26442     -175.03202     -8.6861936    
   1990000   307.38613     -821.19642      200.94389     -162.1227       3.5933202    
   1995000   300.09302     -818.75801      217.822       -153.67586     -7.3508486    
   2000000   319.40998     -825.35163      212.97273     -136.32866     -0.010462395  
   2005000   294.45749     -807.99064      206.83679     -162.29294     -15.186405    
   2010000   289.76961     -821.41644      228.49757     -161.04479      10.605435    
   2015000   298.45193     -805.07393      208.13955     -152.12012      2.576477     
   2020000   286.52028     -829.96209      215.79768     -187.13314     -10.320261    
   2025000   315.32736     -800.40335      207.88473     -122.55314     -18.3252      
   2030000   305.59958     -815.87583      197.71032     -162.69836      12.213219    
   2035000   319.43357     -817.6622       203.35778     -138.21902      3.1808407    
   2040000   295.81005     -827.96094      210.30877     -176.77539      9.3788416    
   2045000   297.96727     -825.8446       227.30905     -154.44364      0.61093206   
   2050000   308.64242     -817.1151       217.39682     -139.71606      2.2998723    
   2055000   293.42967     -810.44424      224.86882     -148.24637      17.629885    
   2060000   295.5211      -803.5601       207.79043     -155.32353      2.7318812    
   2065000   297.20772     -818.70766      208.22686     -167.52092      1.6843496    
   2070000   288.45405     -808.3052       198.12785     -180.26398     -4.038981     
   2075000   298.04863     -801.51512      207.41284     -149.88909     -16.310649    
   2080000   316.42219     -824.07207      218.27966     -134.19519     -8.5412899    
   2085000   298.67393     -818.98984      200.81883     -173.02589     -8.3294026    
   2090000   304.23548     -816.50908      208.91218     -154.1628      -7.675349     
   2095000   292.42714     -825.4736       215.42203     -174.21668      1.5860222    
   2100000   297.49609     -818.52076      208.09666     -167.03444     -11.43302     
   2105000   309.09423     -817.06162      220.78526     -135.60077     -3.5979379    
   2110000   291.64885     -827.68004      212.19158     -180.81355      6.8200175    
   2115000   313.1248      -816.39895      210.60822     -139.10796      8.6009948    
   2120000   287.64511     -818.90233      197.51129     -192.68333     -0.47788213   
   2125000   320.34155     -809.03646      199.11779     -132.48001     -13.076692    
   2130000   303.70872     -818.30422      214.14314     -151.51208      1.4537165    
   2135000   287.46277     -815.9591       196.00897     -191.51416      0.3348152    
   2140000   323.05702     -819.03958      188.92772     -148.62605      5.8854036    
   2145000   297.80636     -818.26492      189.13086     -185.28198     -4.7476635    
   2150000   306.23106     -805.27756      218.74761     -130.12164     -7.3711436    
   2155000   307.05265     -817.53934      206.9605      -152.94603      4.1992749    
   2160000   298.88304     -818.02603      220.45013     -152.11912     -0.22847222   
   2165000   295.48302     -816.77855      203.48711     -172.90206     -9.9105315    
   2170000   303.32113     -819.34226      215.93901     -151.33192      10.543677    
   2175000   302.62679     -827.65596      201.63841     -174.98107      5.9377527    
   2180000   279.28782     -813.86155      211.7328      -185.87678      0.8810624    
   2185000   285.79975     -798.8002       222.35647     -150.48634      0.58315689   
   2190000   308.44004     -816.90643      215.21471     -141.99114     -1.0835488    
   2195000   312.08152     -801.58014      210.64018     -125.81209      17.493793    
   2200000   290.47584     -806.52363      209.3989      -164.19808      5.4658461    
   2205000   304.72665     -812.51315      222.64211     -135.70491      4.3568557    
   2210000   287.35412     -809.75919      204.07187     -177.4133      -2.0154579    
   2215000   299.637       -821.31012      223.66428     -151.06535      3.1086565    
   2220000   285.13154     -825.88147      206.88724     -194.03275     -1.8013646    
   2225000   313.54843     -815.19027      206.06123     -141.81488     -8.7256261    
   2230000   291.41301     -823.52139      218.31688     -170.88108     -5.148387     
   2235000   306.63584     -809.28314      198.89565     -153.37588     -10.634001    
   2240000   301.16672     -827.36487      210.94429     -167.56018     -2.6039155    
   2245000   317.46421     -812.14651      225.52665     -113.46961     -1.9009855    
   2250000   318.98697     -811.12321      211.24359     -124.45983     -3.6898802    
   2255000   323.00142     -816.75481      207.61099     -127.74089      0.50151186   
   2260000   291.64977     -815.1033       212.76861     -167.65839      1.9405266    
   2265000   295.92797     -816.02294      228.26935     -146.70105     -12.946461    
   2270000   309.9036      -795.55945      209.86049     -123.81708      2.5387531    
   2275000   304.19942     -806.07475      201.93136     -150.76304      1.3227754    
   2280000   298.06121     -813.18941      199.09138     -169.8661      -0.83131619   
   2285000   276.86676     -814.09941      221.61535     -179.84045     -6.8799089    
   2290000   309.85904     -804.65394      203.21178     -139.62669      0.90132405   
   2295000   308.48054     -808.46864      209.29652     -139.41118     -0.35173668   
   2300000   329.18636     -813.1925       212.41279     -110.15871     -0.45712134   
   2305000   313.14166     -812.58928      194.26302     -151.61836     -8.4380704    
   2310000   296.21645     -802.10006      199.58861     -161.02896      2.6406981    
   2315000   285.44048     -809.96035      192.23199     -192.30643     -7.8631984    
   2320000   307.00345     -818.85361      206.46861     -154.82551     -6.3293611    
   2325000   290.65785     -822.97925      202.15991     -187.62142      8.7978216    
   2330000   290.80129     -804.14849      193.76607     -176.97072      7.9103854    
   2335000   314.60444     -813.62361      224.7912      -119.94438      7.1868744    
   2340000   303.2921      -814.77753      216.99498     -145.75447      3.5863492    
   2345000   291.73673     -803.64181      202.31924     -166.51668     -0.01408171   
   2350000   307.67809     -807.78862      210.64874     -138.57491      7.2354282    
   2355000   297.4055      -817.94717      202.06901     -172.6235       12.031225    
   2360000   288.83517     -802.68569      195.03732     -177.16699      5.4554739    
   2365000   312.77199     -811.94918      218.92569     -126.86654     -4.3279141    
   2370000   295.01285     -811.88733      222.51353     -149.68516      19.852169    
   2375000   297.6009      -810.21014      224.04127     -142.62299     -7.6500499    
   2380000   289.79405     -811.02063      220.1802      -158.92992      9.6341026    
   2385000   297.34614     -801.99636      221.00712     -137.82305      7.4073071    
   2390000   300.90362     -811.88249      205.05122     -158.363        6.0410928    
   2395000   310.07062     -806.94932      215.94639     -128.87212      14.375978    
   2400000   293.70672     -809.27073      213.65983     -157.86893     -6.1912928    
   2405000   301.34207     -820.16481      220.02884     -151.01424     -13.325234    
   2410000   299.86218     -801.04665      201.04013     -153.09042     -6.8795841    
   2415000   313.19575     -808.97317      195.52078     -146.66387      4.6045952    
   2420000   292.81352     -808.99455      221.70471     -150.8791      -4.0005611    
   2425000   288.99225     -814.47133      211.9381      -171.81773     -9.1310104    
   2430000   310.9365      -807.62123      217.59835     -126.60156     -3.6536321    
   2435000   326.91952     -811.09563      213.34308     -110.51005      5.2856593    
   2440000   310.10273     -808.91038      215.7653      -130.96641     -0.87847481   
   2445000   297.98249     -815.75779      212.44608     -159.1971       3.1050259    
   2450000   326.56323     -792.31642      221.13532     -84.469619      0.40922479   
   2455000   306.83836     -819.52183      203.79464     -158.41375     -4.0101487    
   2460000   304.49058     -810.14691      231.98433     -124.3483       3.8758284    
   2465000   297.91692     -819.46145      204.69789     -170.74668      3.1096921    
   2470000   287.81088     -808.29908      216.2886      -163.0557      -7.3825542    
   2475000   281.88532     -815.45542      238.77065     -156.56147     -5.2242936    
   2480000   305.17365     -818.38145      191.86979     -171.67933      0.49233547   
   2485000   273.81999     -818.63718      202.39224     -208.14224      13.020068    
   2490000   320.34202     -827.17507      213.65893     -136.07679     -8.0587182    
   2495000   315.44456     -816.70833      202.97324     -143.59494     -9.4244149    
   2500000   290.43566     -819.04469      216.80653     -169.37138     -0.05140918   
   2505000   308.73294     -828.10604      199.52806     -168.44085      3.4699519    
   2510000   295.6126      -796.87055      191.93659     -164.35146     -14.781523    
   2515000   291.26367     -816.81189      206.41855     -176.2925      -8.1759239    
   2520000   293.04492     -827.52172      185.40542     -205.36068     -3.2416385    
   2525000   307.22168     -823.86802      204.16574     -161.81756     -14.401131    
   2530000   304.24791     -811.68265      191.92465     -166.30538      11.004284    
   2535000   301.85738     -818.97879      199.39853     -169.69051      9.5269079    
   2540000   296.39612     -823.56933      197.62207     -184.197        6.6840816    
   2545000   293.55154     -812.14988      214.80099     -159.83821      1.0576733    
   2550000   323.24106     -814.71418      209.94363     -123.01045     -8.1955583    
   2555000   308.08724     -822.26365      201.07509     -162.01379      1.3591842    
   2560000   305.70069     -821.8109       214.59907     -151.59399      3.4660425    
   2565000   314.13175     -814.88562      204.31736     -142.38473     -0.27931591   
   2570000   287.73791     -817.54383      227.03491     -161.6629      -13.681588    
   2575000   296.72424     -821.01604      219.50668     -159.27006      7.8122436    
   2580000   278.8679      -811.76225      210.61139     -185.52473     -14.272594    
   2585000   285.21438     -826.09077      203.74084     -197.26499     -10.52601     
   2590000   302.12783     -829.57743      188.28381     -191.00079      7.0146852    
   2595000   306.39585     -816.9114       219.53123     -140.72625      6.5771576    
   2600000   287.82444     -824.67853      206.4231      -189.28044      0.46709522   
   2605000   299.3349      -808.43741      193.351       -168.95617     -11.010887    
   2610000   323.78083     -814.48466      222.98476     -108.93532     -4.6303571    
   2615000   309.51306     -818.29783      207.45704     -149.54097     -1.5290009    
   2620000   296.66381     -806.83673      203.66673     -161.02077      1.7005983    
   2625000   302.20442     -822.06677      210.0286      -161.63119      0.53220447   
   2630000   304.47211     -822.48456      213.44311     -155.25469     -0.95403013   
   2635000   301.49509     -815.96204      203.56935     -163.04288     -16.996804    
   2640000   302.35536     -818.38142      204.1796      -163.56986      3.2175724    
   2645000   285.96639     -815.06132      207.96941     -180.88616      3.05396      
   2650000   299.7674      -817.00668      205.9069      -164.32494     -7.4631497    
   2655000   302.79435     -830.99288      194.35381     -185.35286     -1.6684203    
   2660000   295.17192     -833.1917       225.52441     -167.74158     -9.7017289    
   2665000   315.5323      -816.92346      224.79193     -121.86061      1.9139661    
   2670000   303.32133     -816.64424      185.62599     -178.94662      5.4414867    
   2675000   314.51599     -820.40806      193.44152     -158.21033     -0.50466197   
   2680000   314.16924     -821.07973      218.19064     -134.64968      0.29528597   
   2685000   299.76182     -816.91684      227.45142     -142.6989       3.1043789    
   2690000   313.89809     -812.82594      190.16377     -154.82689      7.9244528    
   2695000   302.86152     -814.6562       239.64303     -123.62683      7.2222059    
   2700000   311.49817     -818.07227      209.18414     -144.62969     -0.37770417   
   2705000   293.81644     -815.09954      222.92939     -154.26466      2.1091539    
   2710000   294.07957     -801.73246      220.74976     -142.68503      4.8135033    
   2715000   292.82286     -809.64282      201.98146     -171.23669      8.3502925    
   2720000   288.54438     -812.83259      229.87104     -152.91356     -2.5436091    
   2725000   301.83363     -810.87765      193.85136     -167.17194     -3.095801     
   2730000   301.32487     -816.89297      240.39623     -127.40064     -0.53785046   
   2735000   291.65214     -808.17926      204.3024      -169.19704      4.5374694    
   2740000   310.8241      -807.61675      202.41461     -141.94835     -11.200498    
   2745000   283.76191     -808.11048      201.75357     -183.43673      9.6761985    
   2750000   294.84786     -802.44442      188.52759     -174.47409     -2.5446222    
   2755000   298.80138     -803.5937       199.61219     -158.64643     -18.630279    
   2760000   293.155       -815.80456      212.87189     -166.01299      5.0775804    
   2765000   307.71597     -816.94482      218.29523     -140.02816     -1.7123947    
   2770000   295.79465     -799.59171      212.7929      -145.94497      0.14625344   
   2775000   288.84151     -809.88004      203.56347     -175.82573      1.0213194    
   2780000   293.64057     -814.42333      200.62583     -176.15412     -6.0846283    
   2785000   288.71006     -808.08359      179.25814     -198.53052     -1.520037     
   2790000   296.49453     -812.15841      197.62499     -172.63649      0.17867772   
   2795000   299.54425     -821.84649      207.59508     -167.80916      1.2783852    
   2800000   312.84361     -807.0686       201.11007     -139.69484     -0.068735331  
   2805000   307.86774     -817.53086      190.94235     -167.74089      9.5738677    
   2810000   304.75385     -815.22001      222.08907     -138.92428      0.85288356   
   2815000   304.09674     -814.31834      200.07921     -161.01182     -3.0951993    
   2820000   282.05526     -800.77166      197.87963     -182.51546      20.670421    
   2825000   310.29475     -799.13578      195.55687     -141.11406      16.136175    
   2830000   306.54209     -802.8718       209.38673     -136.61319     -1.483546     
   2835000   317.1658      -817.33205      186.18342     -158.44313     -5.8629344    
   2840000   278.16632     -809.70003      196.97107     -198.14847      16.685598    
   2845000   299.57739     -811.90969      186.91849     -178.49955     -4.3242981    
   2850000   304.81119     -813.45074      206.46703     -152.69157     -15.781332    
   2855000   330.41771     -810.14861      200.9783      -116.7141      -5.776166     
   2860000   295.14914     -813.74122      206.38088     -167.46859     -7.3264396    
   2865000   297.97344     -812.09921      222.59661     -145.40148      1.7636659    
   2870000   302.1882      -792.52118      200.00141     -142.13695      10.968987    
   2875000   275.19107     -810.54748      196.47745     -203.92388      3.5047664    
   2880000   316.94534     -800.80239      195.78348     -132.64199     -7.0523026    
   2885000   302.12217     -808.66538      197.61548     -160.76549     -9.6353413    
   2890000   313.16391     -810.57548      211.90939     -131.92502     -0.11070674   
   2895000   310.48086     -802.79117      219.75078     -120.29816      6.3118813    
   2900000   293.19896     -794.03776      195.58866     -161.4639      -7.485662     
   2905000   306.38989     -816.68657      208.09979     -151.94175     -15.454952    
   2910000   296.40871     -805.40454      219.04563     -144.58987      4.124725     
   2915000   307.26588     -809.03286      224.87422     -126.20802     -6.8606057    
   2920000   289.09288     -811.99285      204.01691     -177.11046      11.477832    
   2925000   303.30191     -809.42798      217.50214     -139.88315     -0.8789525    
   2930000   286.20434     -810.15798      214.82651     -168.77109     -7.6368934    
   2935000   304.12452     -816.02814      205.54966     -157.20977      9.755793     
   2940000   306.73978     -818.07409      206.97291     -153.93467      3.0772886    
   2945000   312.43669     -814.72964      204.53548     -144.53694     -4.1372944    
   2950000   287.52403     -793.78899      203.25466     -162.00708      5.3452468    
   2955000   292.35324     -814.51026      189.60335     -189.18217      6.0185471    
   2960000   304.29528     -809.99393      219.21547     -137.25525     -16.270683    
   2965000   304.36586     -811.34701      195.88263     -161.83598      0.27662487   
   2970000   305.31252     -811.16239      200.83891     -155.28417      8.0509125    
   2975000   301.91304     -800.64446      212.60442     -138.06733     -9.4341439    
   2980000   316.4412      -813.69632      215.17976     -126.89101      2.8257531    
   2985000   300.76695     -799.50164      214.41196     -136.82511     -0.8747023    
   2990000   290.78101     -802.04733      203.89322     -164.77263     -6.3362347    
   2995000   304.23957     -797.63321      213.31525     -130.87778      1.5643736    
   3000000   294.91431     -805.5163       227.32735     -138.64718      0.40962743   
   3005000   297.33004     -786.9855       211.72564     -132.11767     -6.5144194    
   3010000   290.9333      -785.879        200.86927     -151.40127      2.4273962    
   3015000   309.65354     -795.61331      184.70893     -149.3952      -10.225122    
   3020000   292.13926     -796.82504      207.16224     -154.25698      0.034534991  
   3025000   293.47519     -806.41884      214.02507     -154.99688     -12.25575     
   3030000   287.8602      -809.67722      205.71257     -174.93635      4.4030749    
   3035000   296.03941     -807.924        205.01935     -161.68603      9.7220162    
   3040000   302.63642     -807.71903      202.62167     -154.04652     -0.77834404   
   3045000   306.98527     -797.96735      200.88223     -139.55274      12.959404    
   3050000   296.19432     -813.01412      209.37048     -162.19414      5.2926109    
   3055000   312.8855      -810.12005      220.11595     -123.67797      6.1086222    
   3060000   291.64283     -799.4558       197.3647      -167.42517     -3.42095      
   3065000   295.03667     -812.95529      203.04286     -170.1883      -2.1165744    
   3070000   322.5948      -808.17629      214.84171     -112.53767      8.9011735    
   3075000   290.27076     -811.12688      205.66895     -172.83693      10.373604    
   3080000   302.53357     -808.62815      188.30987     -169.42073      5.3249552    
   3085000   294.47468     -803.93598      232.49634     -132.55309     -12.019212    
   3090000   316.2611      -794.52051      235.32778     -87.835593      5.3593877    
   3095000   298.41053     -804.05874      209.21349     -150.0927       11.605958    
   3100000   295.2958      -783.54133      222.26205     -121.16894     -5.1637328    
   3105000   317.67218     -793.35481      215.4565      -104.43809     -4.8861249    
   3110000   305.71088     -803.84115      212.67086     -135.53726     -2.5358812    
   3115000   301.25317     -796.39869      192.78164     -154.62781     -1.4710054    
   3120000   306.0536      -816.71776      220.20963     -140.36431      0.43777243   
   3125000   301.89259     -809.0223       216.16045     -142.91962      1.1359819    
   3130000   288.97181     -802.253        220.46804     -151.09992      5.1547787    
   3135000   312.42604     -811.28019      211.04193     -134.59692     -1.7762029    
   3140000   295.51397     -806.74567      208.43741     -157.87275     -1.5777501    
   3145000   293.92316     -801.90626      210.78056     -153.06115      3.6871919    
   3150000   317.5843      -808.72833      226.03033     -109.36876      7.3007221    
   3155000   309.10376     -813.75425      196.70479     -156.35966      7.4804468    
   3160000   284.88995     -812.13368      205.5734      -181.95887     -0.50379743   
   3165000   304.94814     -815.11852      199.62664     -160.99563     -0.57969528   
   3170000   303.17115     -811.01615      210.55605     -148.61229     -2.8524948    
   3175000   303.68494     -803.19886      196.61528     -153.97002     -0.29421268   
   3180000   311.37767     -796.29974      214.80151     -117.4194      -16.167335    
   3185000   304.17855     -810.80944      219.27511     -138.1851       8.1508068    
   3190000   298.42193     -811.57723      205.74917     -161.05852      1.3824891    
   3195000   310.08329     -813.57555      214.92552     -136.50033     -2.6053985    
   3200000   291.97674     -808.87078      211.57144     -162.13574     -6.9814566    
   3205000   292.87835     -804.03675      211.04741     -156.48197      15.999004    
   3210000   288.15726     -805.64227      205.57281     -170.59844     -3.7546206    
   3215000   298.85128     -811.59799      195.00009     -171.18845      4.4525251    
   3220000   286.52725     -800.50487      206.71069     -166.75253     -11.280305    
   3225000   303.85002     -813.3963       203.78367     -156.75303      2.7214451    
   3230000   294.69555     -813.09337      216.88991     -156.98773      4.8739515    
   3235000   304.07936     -814.21556      222.94858     -138.06557      0.49449678   
   3240000   296.77137     -801.36768      196.61258     -162.44556     -13.424023    
   3245000   304.97464     -812.60733      214.48414     -143.58745     -9.3100604    
   3250000   309.38975     -818.68994      213.9312      -143.6427      -9.5127428    
   3255000   316.67713     -811.50048      208.61937     -130.90392      11.041619    
   3260000   289.98363     -812.02013      196.69827     -183.1288       16.010391    
   3265000   293.85063     -809.79277      193.3379      -178.49841      1.0364822    
   3270000   314.59784     -800.8351       210.42192     -121.53497     -3.08249      
   3275000   287.09568     -808.86325      190.32648     -190.64792      1.8068918    
   3280000   304.83733     -806.91338      215.81828     -136.76401      9.451455     
   3285000   305.23824     -803.23998      194.21323     -154.09814     -4.4902592    
   3290000   307.69139     -813.76105      206.19077     -148.98548     -9.9239609    
   3295000   299.50232     -800.00728      203.92691     -149.70061     -4.7892141    
   3300000   309.03827     -799.69239      214.55196     -124.54824      1.8022216    
   3305000   297.17494     -810.14344      219.19109     -148.04133      4.7734199    
   3310000   296.50296     -804.68399      206.62239     -156.15209      5.4835385    
   3315000   305.16432     -809.02496      225.0703      -129.13622      9.4761799    
   3320000   310.11499     -801.79412      225.14658     -114.45059      5.7035552    
   3325000   308.81392     -801.88894      211.13172     -130.4994      -14.267682    
   3330000   303.95835     -811.4808       211.63597     -146.82377     -10.960603    
   3335000   283.47567     -815.32653      218.23836     -174.59461     -5.4660202    
   3340000   302.77277     -821.26611      206.06232     -163.94972     -4.5713914    
   3345000   297.636       -802.23784      210.21579     -148.42387     -6.2805392    
   3350000   290.94327     -807.80565      193.85916     -180.32318     -7.0770055    
   3355000   300.12626     -818.02184      212.09111     -158.62105     -8.4047236    
   3360000   307.61988     -816.97501      207.30304     -151.19375      6.7038869    
   3365000   303.84802     -807.25939      232.06916     -122.33361      1.3990766    
   3370000   305.73197     -799.11633      212.35895     -131.09292     -8.7357704    
   3375000   308.1565      -807.12279      217.04909     -130.79571     -4.8857874    
   3380000   310.80359     -825.45346      209.6208      -152.60942      6.1251488    
   3385000   306.37423     -814.16217      215.80546     -141.73501      12.631604    
   3390000   305.56824     -798.96571      205.76637     -137.7789      -12.417296    
   3395000   291.09772     -809.2762       216.11499     -159.30771     -4.4298272    
   3400000   280.44476     -820.65128      200.57668     -202.09831      2.0111477    
   3405000   289.74614     -810.25374      204.88149     -173.53315      5.5033424    
   3410000   306.3489      -805.91678      225.22343     -124.10942     -7.324683     
   3415000   308.43398     -813.99031      213.12667     -141.17209      8.2918575    
   3420000   292.57942     -811.41396      177.68458     -197.66756      3.0703283    
   3425000   275.75296     -805.53118      220.36969     -174.17789      0.65739568   
   3430000   303.82901     -811.32488      215.19072     -143.30586      5.610415     
   3435000   302.16891     -798.08483      221.06215     -126.66863     -15.753115    
   3440000   305.43187     -798.25796      187.56136     -155.4794      -0.39002207   
   3445000   292.67118     -807.76897      222.78154     -148.78883     -4.3732094    
   3450000   309.01884     -802.90895      201.76605     -140.57967      0.75564697   
   3455000   317.32517     -812.95428      216.03944     -123.97181     -1.0670533    
   3460000   287.2888      -803.76687      206.83198     -168.75822      1.0288442    
   3465000   300.53771     -813.53913      222.87183     -142.74439     -4.1202322    
   3470000   298.6289      -809.06197      192.6715      -171.31245     -6.3205248    
   3475000   297.71353     -806.68162      204.03977     -158.92812      20.835103    
   3480000   302.58101     -798.91876      213.59915     -134.35136     -3.6804067    
   3485000   295.27735     -823.13125      232.08999     -150.95841     -5.8617983    
   3490000   306.74435     -804.37807      222.3782      -124.82656     -8.2413461    
   3495000   301.67747     -794.76713      228.52693     -116.61859     -7.8482473    
   3500000   313.50668     -793.05849      225.96714     -99.839424      2.774124     
   3505000   306.79568     -799.8293       207.2189      -135.36057     -8.9938993    
   3510000   291.77591     -796.9663       227.2709      -134.83112      3.425905     
   3515000   298.08112     -798.14283      213.64192     -140.23932      7.4364754    
   3520000   290.35019     -819.41281      232.72914     -153.94428     -0.49690837   
   3525000   301.12747     -825.05423      221.11478     -155.13755      6.8983615    
   3530000   288.31912     -824.2572       217.49782     -177.04712      0.95096341   
   3535000   293.8021      -819.23005      212.40032     -168.9456      -5.6628816    
   3540000   293.96034     -806.60313      202.94948     -165.53367     -1.7186737    
   3545000   319.83287     -821.05548      208.2843      -136.09066      2.3668497    
   3550000   291.78801     -829.49599      244.34823     -150.26544     -8.6270805    
   3555000   295.65788     -815.11102      214.38027     -160.08075     -13.011931    
   3560000   286.30556     -814.59022      204.44299     -183.43598     -3.9099679    
   3565000   290.40906     -812.84809      214.46201     -165.55896     -2.3478942    
   3570000   308.19879     -828.79181      188.49319     -180.95759      2.7803614    
   3575000   303.24466     -819.45649      244.79561     -122.70352     -5.5981672    
   3580000   294.14657     -821.97647      231.71496     -151.86399     -13.776382    
   3585000   276.70896     -815.6784       184.56102     -218.70895     -10.843871    
   3590000   284.56482     -828.51147      222.0807      -182.31392      16.071821    
   3595000   321.71217     -809.16126      211.48411     -118.19572     -5.9354675    
   3600000   289.62857     -816.45226      208.84236     -175.94602     -0.84364561   
   3605000   311.99559     -819.2655       204.2222      -150.0435      -3.2109862    
   3610000   288.44114     -810.4696       216.37325     -164.20222     -3.2272794    
   3615000   302.33464     -814.68885      198.25469     -165.8331      -3.4283433    
   3620000   317.21497     -812.77967      211.99253     -128.00836     -1.2011435    
   3625000   280.20479     -813.80149      207.93279     -188.25007     -18.107948    
   3630000   297.8595      -827.91298      211.95837     -172.02332      2.5845864    
   3635000   309.31433     -818.14246      218.10757     -139.03126     -6.7581614    
   3640000   300.4017      -819.63663      216.03765     -155.87877      7.3146116    
   3645000   286.2905      -809.84127      212.88319     -170.26928     -13.535716    
   3650000   307.42516     -809.50604      207.39102     -143.92702     -4.1158649    
   3655000   304.0927      -810.87598      211.50429     -146.1504       2.7930188    
   3660000   310.81446     -813.75795      189.27436     -161.24415      9.9036598    
   3665000   292.60016     -814.43356      214.73146     -163.60934      1.458173     
   3670000   317.69711     -816.10054      222.79997     -119.8032      -5.628824     
   3675000   290.47442     -813.69291      223.41134     -157.35703     -10.06132     
   3680000   318.47179     -819.90424      197.673       -147.57929      0.78177453   
   3685000   321.72452     -822.52401      192.15951     -150.86465      3.2389239    
   3690000   302.1304      -819.42901      205.73114     -163.4012       7.2946146    
   3695000   314.71084     -815.34578      229.35046     -116.94871      6.2211359    
   3700000   289.8632      -817.01999      212.01306     -172.99336     -11.95952     
   3705000   309.60129     -812.67053      244.70966     -106.52955      14.531101    
   3710000   313.9204      -821.17938      205.62768     -147.68315     -10.13888     
   3715000   303.16085     -815.35952      224.83694     -138.69012     -1.8696916    
   3720000   302.3316      -824.67482      213.90188     -160.17641     -1.6074731    
   3725000   317.40347     -826.7636       199.56886     -154.13502      11.108106    
   3730000   301.18181     -815.42198      225.62639     -140.91272      2.5361623    
   3735000   310.91565     -812.51476      229.90724     -119.21727      4.2194288    
   3740000   303.36665     -816.2186       217.45232     -146.62709     -9.6860677    
   3745000   284.62871     -812.93608      197.32482     -191.3992       4.5373174    
   3750000   302.01205     -812.52459      209.94897     -152.45534      10.718964    
   3755000   283.35987     -812.00204      205.60781     -184.07325      10.73864     
   3760000   324.08677     -801.87662      212.08485     -106.77121      9.9261132    
   3765000   301.69005     -808.51477      218.61604     -140.25836      4.7084598    
   3770000   297.54298     -812.4359       222.04563     -146.93072      15.774519    
   3775000   299.68674     -793.07678      206.06994     -140.35221      6.0061756    
   3780000   307.59855     -816.48228      221.11155     -136.9243      -0.64910699   
   3785000   305.61744     -807.74391      242.65615     -109.59399     -3.4594088    
   3790000   295.02877     -812.73555      213.86679     -159.1564      -5.3261294    
   3795000   304.82148     -812.94805      215.03541     -143.60518      5.7223456    
   3800000   306.52335     -803.3839       197.24155     -149.2984       8.7293319    
   3805000   297.11787     -799.98661      191.48925     -165.6714       12.819378    
   3810000   297.44965     -803.73136      198.82772     -161.58319      0.65710156   
   3815000   309.43273     -818.70115      208.38761     -149.13345      6.8167265    
   3820000   309.98659     -800.51271      209.76721     -128.73993      3.4510785    
   3825000   319.54585     -811.5249       201.91327     -133.3589       16.48192     
   3830000   287.92442     -797.00431      223.9687      -143.91161     -4.4789602    
   3835000   285.15316     -812.85289      196.38388     -191.47531     -14.820045    
   3840000   276.39527     -820.56583      216.55666     -192.06826      12.536389    
   3845000   301.75953     -822.17368      195.7215      -176.70826      6.3494774    
   3850000   307.40398     -825.90321      220.73473     -147.01204     -8.5323643    
   3855000   319.45936     -819.95773      204.03952     -139.79439      0.64826012   
   3860000   301.7625      -799.15064      206.71293     -142.68935      6.2417621    
   3865000   288.73697     -818.57317      234.0985      -154.13964      0.89523763   
   3870000   287.24558     -818.80022      218.74135     -171.94661      2.3626279    
   3875000   305.78433     -820.39638      214.22455     -150.42932      6.8834428    
   3880000   316.90263     -815.97049      203.30179     -140.35543      4.0704583    
   3885000   279.66079     -825.84034      201.54187     -207.49063      5.2138416    
   3890000   300.43865     -811.54517      230.68977     -133.08012     -9.0867537    
   3895000   274.16974     -819.67528      220.63445     -190.41687     -1.6499383    
   3900000   290.92678     -811.63256      199.59328     -178.44054      2.7092055    
   3905000   285.92757     -818.60698      203.26814     -189.19095      9.2510716    
   3910000   306.32893     -811.04523      213.00546     -141.48559      13.421136    
   3915000   287.5862      -826.63646      220.97172     -177.04482     -2.5940321    
   3920000   297.9309      -827.3034       196.9555      -186.3102      -1.5611408    
   3925000   287.94542     -818.48888      196.14989     -193.18369      16.456717    
   3930000   310.03202     -814.25928      207.84457     -144.34144     -3.6154403    
   3935000   310.73379     -817.96625      209.27657     -145.57049     -13.614992    
   3940000   310.19979     -809.8757       199.97608     -147.5763       1.6112941    
   3945000   306.32922     -808.27045      189.06523     -162.65062      11.732786    
   3950000   304.03149     -818.52574      198.60116     -166.79452     -9.7415145    
   3955000   295.49113     -811.11707      226.30791     -144.40769      13.344695    
   3960000   298.55059     -817.44753      215.57589     -156.91034     -7.2138676    
   3965000   305.16798     -808.78505      206.49        -147.47117     -3.5775185    
   3970000   316.07072     -811.79282      195.13119     -145.58824      0.76629631   
   3975000   315.15275     -800.37509      213.79971     -116.87014      0.77405993   
   3980000   300.30415     -807.12414      211.35512     -148.1942       0.77445246   
   3985000   304.51969     -809.52083      209.63982     -146.02333      10.603486    
   3990000   282.21406     -800.67337      204.7578      -175.30232     -0.3247968    
   3995000   309.77127     -808.13476      189.58535     -156.86476     -0.37457121   
   4000000   296.89074     -808.45071      208.46381     -157.49945      7.1277359    
   4005000   299.34286     -814.23718      202.56199     -165.53309      13.65627     
   4010000   301.08744     -799.82629      227.36074     -123.72332     -3.3500964    
   4015000   298.01558     -799.97161      219.0947      -136.713       -2.879979     
   4020000   305.2803      -804.06801      201.25458     -147.82214      7.8030877    
   4025000   313.29339     -811.61944      216.81325     -127.87214     -1.2703399    
   4030000   300.19991     -810.73552      221.32602     -141.99005     -1.7362959    
   4035000   291.5905      -811.11262      211.08372     -165.44096      6.2320635    
   4040000   300.40691     -819.63932      224.78931     -147.12204      4.1758345    
   4045000   327.37213     -808.94349      227.16101     -93.865398      11.129328    
   4050000   302.49264     -799.07741      208.00605     -140.23481      0.98670257   
   4055000   283.26881     -788.89287      192.75964     -173.94798      1.6467442    
   4060000   286.92738     -804.55479      216.3174      -160.59938      4.6540463    
   4065000   282.01329     -806.57437      201.17772     -185.08264     -5.8405377    
   4070000   300.39458     -804.27526      212.85676     -143.7089       4.2013933    
   4075000   308.75416     -806.28943      201.32725     -144.79344     -3.0265996    
   4080000   313.64679     -812.64137      214.57199     -130.60862      7.9384881    
   4085000   310.38839     -784.11317      209.32432     -112.18444     -12.906568    
   4090000   290.94139     -799.73363      216.68688     -149.42623     -2.9650524    
   4095000   300.65958     -809.32708      196.63186     -164.59066      5.1224701    
   4100000   300.5183      -811.62797      203.23514     -160.49883     -1.5469886    
   4105000   298.54392     -799.28676      187.42226     -166.91314      4.2429419    
   4110000   294.50742     -795.74318      198.2159      -158.59194     -4.9131134    
   4115000   304.62382     -797.55134      219.33396     -124.2045      -3.0206397    
   4120000   293.20632     -795.36138      221.07782     -137.28739      4.0869676    
   4125000   299.10573     -796.61251      211.39746     -139.42637     -2.6785306    
   4130000   293.49597     -808.64717      194.93851     -176.28078     -1.650234     
   4135000   303.33145     -795.14554      207.36134     -135.69747     -3.1828439    
   4140000   299.11376     -809.56716      204.80103     -158.96548     -6.1635995    
   4145000   307.83417     -801.9559       201.3375      -141.8208      -0.13253608   
   4150000   288.9106      -793.39291      217.21777     -145.58132      6.988234     
   4155000   318.96653     -805.76846      194.67046     -135.70868      2.43471      
   4160000   288.58932     -792.52066      222.27105     -140.13465      2.9505011    
   4165000   299.85625     -795.07025      232.86927     -115.29373     -1.0653919    
   4170000   305.15255     -793.07461      225.79286     -112.48086      2.0974069    
   4175000   278.35288     -801.2033       208.60646     -177.73831     -4.5969596    
   4180000   294.01867     -791.38634      203.28667     -149.89278     -3.1811752    
   4185000   305.04082     -798.18693      221.25706     -122.2955       11.991141    
   4190000   309.01766     -798.29942      215.00447     -122.73347     -3.6089527    
   4195000   291.96912     -803.70232      217.64686     -150.90322      7.0217618    
   4200000   294.0547      -802.78104      215.09343     -149.42701     -6.5777265    
   4205000   313.24708     -795.95601      227.31281     -101.77819      4.3103014    
   4210000   299.86953     -796.37808      198.41122     -151.03981     -1.2176607    
   4215000   300.67577     -801.38983      225.12957     -128.13157     -6.9623302    
   4220000   297.06367     -788.13722      214.50308     -130.88895      8.357059     
   4225000   293.34133     -799.64628      207.85183     -154.59705     -7.4040071    
   4230000   285.98038     -809.98667      212.23921     -171.52086     -1.907791     
   4235000   295.11453     -817.44182      207.7564      -169.84525      12.886966    
   4240000   301.10689     -815.87444      204.3681      -162.73513     -3.9362913    
   4245000   284.09415     -819.46356      210.24974     -185.79847      2.9620542    
   4250000   294.28715     -786.84472      207.34466     -140.893       -7.0663072    
   4255000   316.18103     -808.03238      201.06299     -135.73159     -7.0393146    
   4260000   294.19816     -814.42094      208.1763      -167.77021     -0.96099674   
   4265000   294.30005     -819.71961      211.32116     -169.77218     -1.1232659    
   4270000   304.61519     -816.33163      200.21099     -162.12062      0.99869418   
   4275000   314.95494     -801.63225      199.65584     -132.56597      0.32031565   
   4280000   310.57628     -805.4442       211.87821     -130.68154     -3.2532775    
   4285000   326.65011     -814.22653      201.40138     -125.98419     -1.6108033    
   4290000   300.61316     -816.1182       209.83131     -158.25152      0.42692532   
   4295000   305.942       -811.66324      209.22625     -146.45951     -8.2637366    
   4300000   287.14078     -805.27333      210.53209     -166.78519      7.6014624    
   4305000   310.18727     -804.8187       201.39184     -141.12219      11.99116     
   4310000   308.32889     -806.26146      205.93917     -140.78736      9.8937992    
   4315000   326.87486     -812.8164       196.75433     -128.88613     -10.293957    
   4320000   286.51857     -797.40951      198.80885     -171.57194      16.761858    
   4325000   276.93769     -801.21953      216.02082     -172.44937     -0.19631615   
   4330000   294.02729     -806.42001      199.56857     -168.63169     -0.13286627   
   4335000   295.41769     -812.33572      224.73453     -147.30918     -2.0811036    
   4340000   299.53017     -808.14456      218.40539     -143.31789     -6.7290637    
   4345000   284.99854     -805.65791      214.83605     -166.0586       11.505157    
   4350000   302.78596     -798.13648      197.15511     -149.70766      1.2767969    
   4355000   292.8101      -806.55852      202.61673     -167.53615      5.5366966    
   4360000   286.41558     -802.7521       196.80743     -179.06946      5.7368514    
   4365000   302.46689     -805.34005      234.69452     -119.84736      2.9206257    
[...]
  23945000   293.26594     -821.11259      206.15951     -177.86804     -4.312038     
  23950000   316.13598     -813.85135      215.47977     -127.20092     -15.335599    
  23955000   318.65766     -808.17496      218.32299     -114.92299      1.0760462    
  23960000   296.15576     -816.78394      191.33398     -184.05793      1.9850293    
  23965000   296.85863     -813.86345      213.01243     -158.41144      2.77679      
  23970000   295.8385      -820.3392       199.16663     -180.25338     -0.33663164   
  23975000   306.10967     -817.35714      199.71463     -161.41513     -2.7822036    
  23980000   308.14036     -821.85953      215.81584     -146.78974     -9.1248939    
  23985000   290.9817      -808.86418      198.27659     -176.907       -3.2921324    
  23990000   313.11943     -814.66119      224.15929     -123.82712     -1.2905467    
  23995000   298.59172     -818.76466      206.12222     -167.61984     -14.053153    
  24000000   307.2883      -826.43631      194.21418     -174.23811      16.679795    
  24005000   304.93604     -815.0975       217.78684     -142.83245     -2.053396     
  24010000   302.78102     -809.02375      200.06349     -157.69389      0.6020704    
  24015000   286.63785     -811.95163      218.41141     -166.33373      3.9872082    
  24020000   309.06047     -821.94065      213.43279     -147.88259     -8.7210515    
  24025000   290.65871     -826.88929      188.34123     -205.34886     -12.612414    
  24030000   290.99438     -811.25634      218.43704     -159.11981     -4.6884037    
  24035000   299.48744     -812.99761      207.55671     -159.08331     -0.03198832   
  24040000   300.99877     -819.7853       227.54192     -143.6333      -5.0847201    
  24045000   285.45578     -820.07936      219.85803     -174.7766      -3.4052055    
  24050000   330.36898     -813.92883      221.0442      -100.50104      8.8464414    
  24055000   318.78346     -815.19902      202.89884     -137.18371      1.1236376    
  24060000   325.5765      -807.22048      224.54598     -97.433641      8.125196     
  24065000   305.07624     -797.5437       207.68475     -135.1718      -3.2261597    
  24070000   317.92036     -819.52274      210.13286     -135.55979      9.2735091    
  24075000   316.34136     -820.93294      204.94046     -144.51572      6.7630111    
  24080000   290.698       -823.12036      213.17816     -176.68444     -7.1736474    
  24085000   304.59831     -811.94775      201.68254     -156.29036      22.009198    
  24090000   310.44714     -817.36582      187.83248     -166.84135      0.72354224   
  24095000   275.97612     -812.10616      197.69862     -203.09135      15.610109    
  24100000   296.60303     -817.60269      232.94293     -142.60111     -3.4942973    
  24105000   301.62474     -809.97268      209.69928     -150.73038      5.1125692    
  24110000   301.65864     -811.19151      196.28239     -165.31557      3.1362427    
  24115000   290.4547      -811.22415      219.02116     -159.30784      13.544774    
  24120000   304.07538     -824.31205      183.4887      -187.62788     -0.12456859   
  24125000   302.35381     -808.63955      235.27154     -122.73837     -8.2472474    
  24130000   322.51034     -805.60266      197.16897     -127.76266      3.7007801    
  24135000   299.65062     -828.04246      218.58296     -162.85871     -3.6991827    
  24140000   286.81411     -813.07927      201.69861     -183.91147      0.030510764  
  24145000   283.92124     -809.85817      205.33725     -181.36328      11.989918    
  24150000   285.23443     -810.64936      219.70761     -165.82693     -1.602638     
  24155000   289.44361     -797.66429      198.66676     -167.60932     -4.3004472    
  24160000   299.10733     -808.89765      220.90128     -142.20531      13.433664    
  24165000   300.52725     -810.47381      182.15632     -180.41015     -4.9970133    
  24170000   276.03239     -812.20948      200.90431     -199.9051      -11.395754    
  24175000   293.03098     -808.98172      199.81714     -172.42973     -8.6175649    
  24180000   299.87483     -815.4532       219.77422     -148.74402     -4.977064     
  24185000   298.23563     -810.68413      205.19952     -160.99273     -2.3479887    
  24190000   308.19663     -808.14234      212.43317     -136.37136      8.5364588    
  24195000   292.51813     -808.30773      231.2387      -141.09854      6.1655928    
  24200000   307.12823     -802.22042      203.36724     -141.10772      16.074841    
  24205000   312.84477     -800.22698      225.37471     -108.58685     -7.7937198    
  24210000   289.21952     -806.11199      211.06378     -163.99399     -5.0318274    
  24215000   308.20248     -820.74334      205.3493      -156.04751     -9.6293865    
  24220000   299.44464     -811.72188      215.69923     -149.72885     -2.6503904    
  24225000   296.30193     -807.29686      193.85674     -171.83024      5.5390835    
  24230000   289.61671     -801.81444      200.58873     -169.57952      6.1377583    
  24235000   295.80212     -811.48547      205.83323     -164.78728      16.897744    
  24240000   304.02018     -818.51         203.43824     -161.95855      6.182605     
  24245000   291.34969     -806.74573      228.47506     -144.04162      5.8952293    
  24250000   287.61992     -816.94276      227.53174     -160.74084     -13.577752    
  24255000   303.98899     -815.3977       191.24513     -171.08586     -6.4783577    
  24260000   300.56503     -814.96535      208.81173     -158.18999     -5.6955958    
  24265000   302.40552     -799.78247      210.7614      -138.31436     -14.644058    
  24270000   305.44468     -808.73747      203.24026     -150.26093      12.297881    
  24275000   309.95398     -812.31931      195.52241     -154.83994      18.010672    
  24280000   289.8998      -811.89583      190.40375     -189.42396     -1.5035761    
  24285000   307.27627     -808.82929      227.23346     -123.62974      12.098603    
  24290000   299.56899     -816.57411      219.44438     -150.65059     -6.5630311    
  24295000   295.60033     -801.94057      206.90274     -154.47361     -6.7205464    
  24300000   289.4109      -814.68139      212.18107     -171.16087     -9.2098293    
  24305000   292.24157     -805.08713      227.05309     -142.47574     -15.686087    
  24310000   300.87097     -803.02702      208.83241     -145.775        12.798884    
  24315000   306.0595      -815.23365      214.41053     -144.6705      -6.0081485    
  24320000   313.95211     -802.15032      217.50554     -116.72899      5.4025191    
  24325000   317.84798     -791.44912      214.62861     -103.09829     -0.77301921   
  24330000   305.91815     -810.52211      214.62697     -139.95319     -5.588026     
  24335000   315.09081     -801.49798      218.67323     -113.21183      12.745583    
  24340000   305.24315     -802.48722      206.77668     -140.77462     -2.1886045    
  24345000   291.59781     -798.68487      214.10283     -149.98319      4.9244754    
  24350000   326.78438     -798.14914      218.8493      -92.258754     -0.60059692   
  24355000   309.08672     -794.22893      215.59553     -117.969        7.370452     
  24360000   305.43886     -809.62971      226.05821     -128.34389      5.6346115    
  24365000   304.1412      -801.27021      187.64241     -160.33422      4.3702114    
  24370000   299.71484     -798.12524      220.90299     -130.52574     -5.1110544    
  24375000   312.17334     -794.88485      244.70378     -84.916355      2.4289066    
  24380000   306.37433     -799.71276      217.13775     -125.95317     -0.011307723  
  24385000   292.36838     -791.8771       205.56167     -150.56812      4.060934     
  24390000   274.92963     -807.43788      211.02678     -186.6546       6.151327     
  24395000   307.15834     -806.20114      210.94241     -137.4684      -8.6106606    
  24400000   298.84284     -805.18189      208.44794     -151.33708      1.8398849    
  24405000   313.20313     -807.40484      198.58671     -142.01862      3.1487605    
  24410000   288.62529     -813.90996      214.52574     -169.21563     -3.077622     
  24415000   305.63741     -812.07958      217.45869     -139.09737      2.8969202    
  24420000   285.61911     -814.79038      224.83914     -164.26308      7.1645569    
  24425000   300.10094     -801.96772      199.96687     -154.7289      -2.0978432    
  24430000   316.25087     -800.09924      214.43897     -114.31838     -17.353823    
  24435000   294.28379     -806.68726      202.08394     -166.00129     -6.8158374    
  24440000   290.75675     -814.81415      219.0589      -162.40993     -1.1676822    
  24445000   292.38631     -822.20558      225.1655      -161.26606      4.3143204    
  24450000   302.70269     -818.15434      200.03044     -166.97429      4.1416117    
  24455000   303.71337     -802.02559      187.45524     -161.91441     -2.899233     
  24460000   301.05139     -821.03828      195.9586      -176.39117     -8.0264616    
  24465000   305.87642     -820.96793      209.00507     -156.0831       1.3065973    
  24470000   304.84762     -816.90748      211.11206     -151.44898      2.8831206    
  24475000   302.56343     -822.87925      209.58865     -162.34855      5.5158       
  24480000   313.41134     -818.91162      225.25703     -126.54476     -5.4485067    
  24485000   282.27317     -819.67227      210.17955     -188.79137     -7.2773094    
  24490000   308.57186     -819.09455      188.1801      -171.0174       14.345793    
  24495000   309.22121     -810.05884      208.42945     -140.76456      10.208808    
  24500000   312.96159     -822.25934      222.83178     -132.98803      0.15077193   
  24505000   314.81744     -816.45444      223.83626     -123.41269     -1.5020754    
  24510000   295.03497     -818.53544      205.46155     -173.35228     -0.98453254   
  24515000   302.42406     -810.60487      200.47259     -159.39794      5.2289509    
  24520000   300.90108     -826.66218      210.90514     -167.29256     -2.5445214    
  24525000   305.0477      -811.26917      213.60188     -143.02266     -0.020083144  
  24530000   294.61624     -822.10344      209.15095     -173.85497     -5.3911937    
  24535000   294.62273     -820.78807      224.44098     -157.23989      4.6372905    
  24540000   290.1758      -820.72547      210.09989     -178.14611      4.428574     
  24545000   304.23357     -821.88667      202.14003     -166.3154      -6.794423     
  24550000   307.79271     -824.8962       214.20504     -151.95536      9.8581924    
  24555000   296.99408     -813.15567      219.33839     -151.17582     -11.937515    
  24560000   304.00466     -822.80796      214.07216     -155.64573      4.0612694    
  24565000   306.28138     -818.74632      219.088       -143.17501      12.353983    
  24570000   295.56568     -810.56868      234.70983     -135.34627      1.5871416    
  24575000   305.52655     -819.01271      218.71621     -144.93819      12.868252    
  24580000   307.84781     -817.87773      202.65648     -156.40333     -1.4299134    
  24585000   297.05938     -813.28746      228.22567     -142.323        5.2486162    
  24590000   304.93199     -809.21336      233.85166     -120.88952      7.1065254    
  24595000   288.86635     -810.08052      224.06917     -155.48348     -0.53376901   
  24600000   315.33985     -813.92941      229.85781     -114.08751     -9.6431799    
  24605000   302.50339     -802.48544      212.29148     -139.3414      -9.4497927    
  24610000   311.35773     -808.78831      225.27495     -119.46423      3.8681862    
  24615000   295.42289     -813.62951      204.98209     -168.34765      9.5826604    
  24620000   282.46305     -817.37331      207.14493     -189.24403     -4.9816144    
  24625000   308.49714     -802.90611      210.25448     -132.86594      6.7763647    
  24630000   306.65468     -794.49999      207.41273     -130.04759     -6.8308433    
  24635000   300.83422     -802.71164      220.23173     -134.11507      1.5552748    
  24640000   293.48877     -798.2374       198.77515     -162.04511      8.3134607    
  24645000   294.31832     -814.18089      206.65582     -168.87157      2.7509272    
  24650000   301.82431     -801.17253      200.27577     -151.05629      12.236283    
  24655000   306.49554     -802.46063      208.74059     -136.91755     -4.4344798    
  24660000   298.00067     -796.99656      186.23832     -166.61654     -1.1940968    
  24665000   301.59523     -797.24598      226.64063     -121.10631     -8.267376     
  24670000   284.42902     -806.67081      230.44228     -152.31409     -4.6814131    
  24675000   300.99266     -811.76357      213.75551     -149.40709     -9.5499526    
  24680000   297.14018     -787.74741      205.37067     -139.51752     -2.0014024    
  24685000   278.8214      -803.66281      204.30099     -183.805       -2.1286746    
  24690000   280.98095     -793.47633      209.38071     -165.3202      -8.5538339    
  24695000   286.49674     -812.17657      194.10694     -191.07345      1.680349     
  24700000   292.93183     -804.8605       199.2104      -169.06302      1.821895     
  24705000   289.74428     -814.70564      206.56971     -176.29959      0.80504395   
  24710000   313.49021     -801.29411      207.30138     -126.76534      2.6305729    
  24715000   298.8986      -808.74636      202.01594     -161.25044     -11.347272    
  24720000   296.12292     -814.60242      205.39562     -167.86371      12.746941    
  24725000   296.05147     -817.42661      225.48033     -150.70968     -5.1185332    
  24730000   311.37248     -794.26979      203.43692     -126.76177      6.729135     
  24735000   292.53043     -808.59707      206.14183     -166.46642      0.84436876   
  24740000   290.55931     -803.65372      207.72264     -162.88002     -5.2657618    
  24745000   299.77328     -805.7511       219.39338     -139.57412     -5.336506     
  24750000   314.76741     -808.70898      212.11657     -127.46148      5.173528     
  24755000   304.14833     -810.03317      192.30548     -164.42349      13.765364    
  24760000   293.18116     -817.21603      220.83512     -159.42224     -3.1758354    
  24765000   301.4951      -815.62306      191.8949      -174.37834      0.55970461   
  24770000   314.04337     -805.93486      212.12436     -125.75869      7.9882069    
  24775000   287.79411     -812.00419      205.93759     -177.13681     -5.3732655    
  24780000   297.75506     -817.34189      227.40803     -146.15821     -2.5579136    
  24785000   310.10475     -827.50539      245.38378     -119.93993     -2.6550464    
  24790000   302.49589     -814.92336      201.37441     -162.70756     -15.592399    
  24795000   292.56176     -811.59563      202.98476     -172.57537     -2.4262969    
  24800000   310.47458     -816.50222      237.578       -116.19136     -16.868725    
  24805000   318.61725     -826.69898      207.08871     -144.74152     -9.7087444    
  24810000   306.89837     -812.13823      194.46304     -160.27231     -10.832625    
  24815000   310.51479     -816.60996      213.96478     -139.85238     -12.800852    
  24820000   301.44922     -820.59284      219.58643     -151.72499      10.962823    
  24825000   292.44307     -817.66328      217.99024     -163.81442     -11.604374    
  24830000   301.89887     -822.80572      238.75297     -134.10115      6.2320535    
  24835000   304.97053     -824.86373      202.00874     -168.32537     -3.0983043    
  24840000   295.30749     -810.13006      201.40275     -168.59954     -1.0523147    
  24845000   288.56423     -808.19706      211.39262     -166.72686      11.331504    
  24850000   297.78044     -817.99763      211.19481     -162.98936     -6.8241125    
  24855000   293.57743     -811.96621      207.28211     -167.13483     -2.9537918    
  24860000   301.17025     -820.6241       214.00427     -157.75418      3.743493     
  24865000   291.73977     -817.41273      202.70109     -179.90122      11.894497    
  24870000   309.88512     -815.30358      216.69203     -136.75721     -1.1957737    
  24875000   274.68567     -825.40503      202.24297     -213.76914      10.042747    
  24880000   294.1311      -825.42591      220.01038     -167.04106     -9.9994785    
  24885000   288.95841     -812.37793      207.10379     -174.60907     -4.625579     
  24890000   302.17199     -817.64932      198.90351     -168.38715      7.1147672    
  24895000   285.9654      -835.93299      197.43212     -212.29661     -2.128397     
  24900000   308.03056     -810.67803      211.05702     -140.53072      10.816842    
  24905000   301.16186     -813.39419      189.53801     -175.00304      16.672347    
  24910000   288.52985     -820.61566      237.27373     -153.31561      3.7220349    
  24915000   301.70119     -825.10868      212.15631     -163.2954      -6.6265691    
  24920000   291.41276     -830.68561      201.10314     -195.25942     -0.24206741   
  24925000   286.21146     -819.1413       213.5463      -179.02401     -3.6578611    
  24930000   312.34679     -821.72992      213.9261      -142.28059      9.9995927    
  24935000   297.05564     -823.38349      202.67915     -177.97112      6.7681645    
  24940000   306.58917     -819.78616      239.03727     -123.80684      4.4178376    
  24945000   293.353       -820.89713      214.69459     -168.98774     -4.2529677    
  24950000   285.91396     -814.38979      212.79185     -175.47033      4.6425132    
  24955000   296.18676     -808.45199      218.86446     -148.1493      -1.2448408    
  24960000   297.71774     -819.69724      218.83184     -157.14539     -8.4110668    
  24965000   309.05921     -809.33194      213.27079     -135.43774      4.4752916    
  24970000   298.86746     -813.89707      215.83391     -152.6296      -6.6749606    
  24975000   321.5565      -812.11064      211.78304     -121.07819      1.9831179    
  24980000   305.35999     -826.40049      223.65708     -147.63335      7.2443743    
  24985000   300.35579     -817.91548      227.05792     -143.20577     -6.3063522    
  24990000   302.67423     -823.46128      194.08942     -178.26467      9.6794023    
  24995000   281.31156     -820.56341      208.54701     -192.74823     -4.0945875    
  25000000   308.37762     -826.23049      231.82528     -134.79765      0.66104297   
  25005000   310.42458     -819.76909      200.16606     -156.94467      13.489273    
  25010000   300.6141      -819.52621      210.90163     -160.58781     -8.8182584    
Loop time of 4162.33 on 18 procs for 25000000 steps with 501 atoms

Performance: 15568.208 ns/day, 0.002 hours/ns, 6006.253 timesteps/s
99.6% CPU use with 18 MPI tasks x 1 OpenMP threads

MPI task timing breakdown:
Section |  min time  |  avg time  |  max time  |%varavg| %total
---------------------------------------------------------------
Pair    | 5.4749     | 199.8      | 1174.3     |2338.5 |  4.80
Bond    | 3.6249     | 47.621     | 223.25     | 941.0 |  1.14
Neigh   | 750.66     | 761.6      | 780.64     |  42.4 | 18.30
Comm    | 1703.8     | 2997.2     | 3259.8     | 812.8 | 72.01
Output  | 0.92829    | 1.0601     | 1.1815     |   7.6 |  0.03
Modify  | 9.2462     | 56.126     | 242.24     | 921.1 |  1.35
Other   |            | 98.89      |            |       |  2.38

Nlocal:        27.8333 ave         145 max           0 min
Histogram: 8 6 2 0 0 0 0 0 0 2
Nghost:        815.167 ave        1008 max         472 min
Histogram: 2 0 0 0 3 4 1 0 5 3
Neighs:        272.944 ave        1691 max           0 min
Histogram: 11 4 1 0 0 0 0 1 0 1
FullNghs:      560.556 ave        3820 max           0 min
Histogram: 11 5 0 0 0 0 0 1 0 1

Total # of neighbors = 10577
Ave neighs/atom = 21.111776
Ave special neighs/atom = 3.5928144
Neighbor list builds = 2500000
Dangerous builds = 2500000
Total wall time: 1:09:23
