ITEM: TIMESTEP
0
ITEM: NUMBER OF ATOMS
501
ITEM: BOX BOUNDS pp pp pp
0.0000000000000000e+00 1.5000000000000000e+02
0.0000000000000000e+00 1.5000000000000000e+02
0.0000000000000000e+00 1.5000000000000000e+02
ITEM: ATOMS type x y z
4 75 75 75
2 5.63052 24.7002 46.1953
1 10.3039 24.4893 46.6478
1 14.9773 24.2784 47.1003
1 19.6508 24.0675 47.5528
1 24.3242 23.8566 48.0053
2 28.9852 148.084 33.7403
1 31.5659 0.22097 30.4443
1 34.1466 2.35778 27.1482
1 36.7273 4.49458 23.8522
1 39.3081 6.63139 20.5562
2 22.2498 13.915 21.4594
1 19.5234 10.3452 22.8425
1 16.797 6.7754 24.2257
1 14.0705 3.20561 25.6088
1 11.3441 149.636 26.9919
2 45.3435 38.4969 20.3613
1 43.7849 42.8554 21.1767
1 42.2263 47.2138 21.9921
1 40.6677 51.5722 22.8076
1 39.1091 55.9306 23.623
2 52.1594 25.8482 17.0576
1 56.5767 26.08 18.6463
1 60.994 26.3117 20.2349
1 65.4113 26.5434 21.8236
1 69.8286 26.7751 23.4123
2 14.2421 26.9733 31.8283
1 18.8044 26.152 32.6031
1 23.3668 25.3307 33.378
1 27.9291 24.5094 34.1529
1 32.4915 23.6881 34.9278
2 20.7499 51.6808 7.33225
1 17.6099 48.184 7.28257
1 14.4698 44.6872 7.23288
1 11.3298 41.1903 7.1832
1 8.1898 37.6935 7.13352
2 3.38666 52.5012 17.9805
1 3.77411 47.9297 19.0007
1 4.16156 43.3581 20.0209
1 4.54901 38.7866 21.0412
1 4.93646 34.215 22.0614
2 143.795 40.7282 2.38381
1 147.412 38.5085 4.40438
1 1.02852 36.2888 6.42495
1 4.64518 34.0691 8.44552
1 8.26184 31.8494 10.4661
2 26.677 20.4426 26.9779
1 30.8987 18.7988 25.7267
1 35.1203 17.155 24.4754
1 39.342 15.5112 23.2242
1 43.5636 13.8674 21.9729
2 51.8884 32.3871 84.6588
1 52.3004 35.179 80.9004
1 52.7124 37.9709 77.142
1 53.1245 40.7628 73.3836
1 53.5365 43.5547 69.6252
2 9.56829 42.7884 66.1478
1 6.92309 45.5913 63.4577
1 4.27788 48.3942 60.7676
1 1.63268 51.197 58.0774
1 148.987 53.9999 55.3873
2 47.5083 38.2851 55.9341
1 52.1319 38.3549 55.0928
1 56.7554 38.4247 54.2515
1 61.379 38.4945 53.4102
1 66.0025 38.5644 52.5689
2 70.1333 38.5978 92.4581
1 71.7355 36.5264 88.5553
1 73.3376 34.455 84.6524
1 74.9397 32.3836 80.7495
1 76.5418 30.3122 76.8466
2 49.4652 43.4823 82.8117
1 53.9584 44.8545 82.9458
1 58.4516 46.2268 83.0798
1 62.9448 47.599 83.2138
1 67.4381 48.9712 83.3478
2 25.9137 2.48682 100.595
1 30.5433 1.9202 100.015
1 35.1729 1.35357 99.4358
1 39.8025 0.786941 98.8563
1 44.4321 0.220314 98.2769
2 63.248 14.0332 128.259
1 61.9379 17.7435 125.688
1 60.6278 21.4537 123.118
1 59.3177 25.164 120.548
1 58.0076 28.8743 117.977
2 36.3666 34.9496 134.17
1 38.7113 30.9018 134.626
1 41.0559 26.854 135.082
1 43.4006 22.8062 135.538
1 45.7453 18.7584 135.994
2 46.0779 35.6849 125.829
1 44.7054 40.1181 125.086
1 43.3328 44.5513 124.343
1 41.9603 48.9846 123.599
1 40.5877 53.4178 122.856
2 63.578 64.0606 2.49364
1 64.1482 68.7249 2.39932
1 64.7185 73.3892 2.30501
1 65.2887 78.0535 2.2107
1 65.859 82.7178 2.11639
2 36.4792 90.5516 31.2263
1 40.0232 88.0849 33.0824
1 43.5673 85.6182 34.9384
1 47.1114 83.1515 36.7945
1 50.6554 80.6848 38.6505
2 16.5935 76.4949 26.2626
1 13.529 75.6927 29.7346
1 10.4644 74.8904 33.2066
1 7.39981 74.0882 36.6786
1 4.33524 73.2859 40.1506
2 68.5231 80.4262 1.79147
1 71.7126 80.1833 5.23503
1 74.9021 79.9404 8.67859
1 78.0916 79.6975 12.1221
1 81.2811 79.4546 15.5657
2 30.2062 82.5376 40.9701
1 34.4947 82.0654 39.106
1 38.7833 81.5932 37.2418
1 43.0719 81.121 35.3777
1 47.3605 80.6488 33.5136
2 49.3327 75.1723 62.0225
1 44.8299 76.2684 62.8057
1 40.3271 77.3644 63.5889
1 35.8243 78.4604 64.3721
1 31.3215 79.5565 65.1553
2 59.5815 43.0284 53.5207
1 62.2787 46.8579 53.1331
1 64.9759 50.6874 52.7455
1 67.6732 54.5168 52.3579
1 70.3704 58.3463 51.9703
2 1.02748 91.6885 81.2294
1 4.30078 94.5762 79.4869
1 7.57407 97.464 77.7445
1 10.8474 100.352 76.002
1 14.1207 103.24 74.2595
2 6.40118 54.9725 99.7199
1 7.81187 54.2992 95.2875
1 9.22256 53.6259 90.855
1 10.6333 52.9526 86.4226
1 12.044 52.2793 81.9901
2 0.56109 107.56 84.6155
1 0.337033 103.168 86.2745
1 0.112975 98.7766 87.9334
1 149.889 94.3848 89.5924
1 149.665 89.993 91.2514
2 77.2393 62.9436 149.593
1 74.7536 59.518 147.549
1 72.2679 56.0924 145.505
1 69.7822 52.6669 143.462
1 67.2965 49.2413 141.418
2 67.7369 67.7217 113.768
1 71.1586 69.7152 111.236
1 74.5803 71.7087 108.705
1 78.0021 73.7023 106.174
1 81.4238 75.6958 103.643
2 21.5686 54.2923 118.906
1 24.6552 55.2721 122.312
1 27.7418 56.2519 125.718
1 30.8284 57.2317 129.125
1 33.9149 58.2115 132.531
2 36.9537 104.683 108.438
1 38.8641 100.664 109.95
1 40.7745 96.6449 111.462
1 42.6849 92.6257 112.974
1 44.5952 88.6064 114.486
2 8.47531 116.629 31.0819
1 4.58474 116.796 33.7136
1 0.694173 116.962 36.3453
1 146.804 117.129 38.9769
1 142.913 117.296 41.6086
2 1.19475 143.104 30.1744
1 4.99282 145.844 30.5757
1 8.7909 148.583 30.977
1 12.589 1.32206 31.3782
1 16.387 4.06133 31.7795
2 74.0071 118.564 47.9825
1 70.9391 115.01 47.7596
1 67.8712 111.456 47.5367
1 64.8033 107.903 47.3139
1 61.7353 104.349 47.091
2 149.473 135.405 29.1477
1 0.825235 138.049 25.5045
1 2.17711 140.693 21.8614
1 3.52899 143.337 18.2183
1 4.88086 145.98 14.5751
2 29.9275 134.832 16.1304
1 29.6717 139.329 14.7854
1 29.4159 143.825 13.4403
1 29.1602 148.321 12.0953
1 28.9044 2.81713 10.7503
2 31.0946 114.432 89.3922
1 35.7833 114.226 89.6441
1 40.4721 114.02 89.8961
1 45.1608 113.814 90.148
1 49.8495 113.609 90.3999
2 51.5505 109.555 94.7023
1 50.6251 106.607 91.161
1 49.6997 103.658 87.6196
1 48.7744 100.71 84.0783
1 47.849 97.7617 80.537
2 68.239 120.464 82.2665
1 71.322 122.717 79.5265
1 74.405 124.97 76.7864
1 77.488 127.224 74.0464
1 80.571 129.477 71.3064
2 73.1612 0.149904 93.9384
1 70.3788 146.767 95.6421
1 67.5964 143.384 97.3458
1 64.8141 140 99.0495
1 62.0317 136.617 100.753
2 57.4685 121.168 110.196
1 59.0464 116.742 110.317
1 60.6243 112.317 110.437
1 62.2022 107.891 110.558
1 63.7801 103.466 110.678
2 39.7586 109.767 123.83
1 44.3768 110.052 123.005
1 48.9951 110.336 122.179
1 53.6133 110.621 121.354
1 58.2316 110.905 120.529
2 19.5776 119.355 142.23
1 20.7384 114.855 142.933
1 21.8992 110.355 143.637
1 23.0601 105.856 144.34
1 24.2209 101.356 145.043
2 46.2024 100.862 108.985
1 50.6151 102.056 107.892
1 55.0279 103.249 106.799
1 59.4406 104.442 105.707
1 63.8533 105.636 104.614
2 43.4814 95.8561 114.058
1 42.7619 100.383 115.097
1 42.0423 104.91 116.137
1 41.3227 109.436 117.176
1 40.6032 113.963 118.216
2 127.046 13.7952 15.9616
1 129.349 17.2865 13.8172
1 131.652 20.7778 11.6728
1 133.955 24.269 9.52847
1 136.257 27.7603 7.3841
2 141.727 10.6441 21.2961
1 138.608 12.7792 18.5024
1 135.489 14.9144 15.7087
1 132.37 17.0495 12.9151
1 129.252 19.1847 10.1214
2 118.594 147.346 23.9773
1 122.654 148.732 25.8958
1 126.715 0.117678 27.8143
1 130.776 1.50364 29.7328
1 134.836 2.88959 31.6513
2 114.034 144.615 12.5933
1 111.231 148.035 14.1853
1 108.428 1.45569 15.7774
1 105.625 4.87604 17.3694
1 102.822 8.29638 18.9615
2 107.24 13.0222 40.9303
1 106.139 16.5262 43.8629
1 105.038 20.0302 46.7954
1 103.937 23.5341 49.728
1 102.836 27.0381 52.6606
2 119.914 45.5577 42.9644
1 122.651 46.8774 46.5501
1 125.388 48.1972 50.1359
1 128.125 49.5169 53.7216
1 130.862 50.8367 57.3074
2 124.299 24.666 69.9087
1 128.359 22.9064 68.3242
1 132.419 21.1469 66.7397
1 136.479 19.3874 65.1552
1 140.539 17.6279 63.5706
2 70.7057 23.6634 90.8774
1 74.5024 23.7043 88.1074
1 78.2991 23.7452 85.3373
1 82.0959 23.7861 82.5673
1 85.8926 23.8269 79.7972
2 124.534 46.8468 96.4096
1 127.157 46.0639 92.5885
1 129.779 45.2811 88.7674
1 132.401 44.4982 84.9464
1 135.024 43.7153 81.1253
2 86.5411 15.8742 92.5928
1 86.3334 15.9139 87.8975
1 86.1258 15.9537 83.2023
1 85.9181 15.9934 78.507
1 85.7105 16.0332 73.8118
2 112.721 3.98096 66.3782
1 116.474 3.98733 69.2076
1 120.227 3.9937 72.0369
1 123.98 4.00006 74.8663
1 127.733 4.00643 77.6956
2 126.114 28.0659 70.9617
1 125.572 28.6804 66.3337
1 125.03 29.295 61.7057
1 124.488 29.9096 57.0777
1 123.946 30.5242 52.4497
2 147.528 23.2837 144.684
1 145.94 26.912 142.154
1 144.352 30.5402 139.623
1 142.765 34.1685 137.092
1 141.177 37.7967 134.561
2 117.637 34.4469 147.504
1 116.202 34.0376 143.047
1 114.767 33.6282 138.591
1 113.331 33.2188 134.134
1 111.896 32.8094 129.677
2 92.9198 46.5322 132.582
1 96.6858 45.7783 129.873
1 100.452 45.0245 127.164
1 104.218 44.2707 124.455
1 107.984 43.5169 121.746
2 139.211 147.877 148.745
1 140.523 149.478 144.525
1 141.834 1.07933 140.305
1 143.145 2.68052 136.085
1 144.456 4.28171 131.865
2 134.324 12.8747 101.212
1 138.985 12.5673 100.694
1 143.646 12.2598 100.176
1 148.307 11.9523 99.6586
1 2.96876 11.6448 99.1408
2 123.423 77.8452 23.7011
1 127.03 76.9612 26.5811
1 130.638 76.0772 29.4612
1 134.245 75.1932 32.3413
1 137.853 74.3091 35.2213
2 134.442 66.4121 31.7038
1 139.019 65.3543 31.8626
1 143.596 64.2965 32.0213
1 148.172 63.2388 32.18
1 2.74913 62.181 32.3387
2 128.643 66.0198 37.8067
1 131.666 68.4872 35.187
1 134.689 70.9545 32.5673
1 137.712 73.4219 29.9476
1 140.735 75.8892 27.3279
2 78.3546 105.377 6.42721
1 79.5696 100.919 5.56989
1 80.7846 96.4601 4.71257
1 81.9996 92.0015 3.85525
1 83.2146 87.543 2.99793
2 127.539 96.0186 21.2229
1 124.582 95.0571 17.6986
1 121.625 94.0956 14.1743
1 118.667 93.134 10.65
1 115.71 92.1725 7.12571
2 102.916 89.9403 13.3222
1 106.54 86.9486 13.3801
1 110.164 83.9569 13.4379
1 113.789 80.9652 13.4957
1 117.413 77.9735 13.5535
2 100.869 43.6826 18.8781
1 103.387 47.5009 19.9593
1 105.905 51.3192 21.0405
1 108.424 55.1374 22.1217
1 110.942 58.9557 23.2029
2 121.664 69.6172 51.5072
1 126.092 68.9656 52.9398
1 130.521 68.3141 54.3723
1 134.95 67.6625 55.8048
1 139.378 67.0109 57.2374
2 136.547 64.3723 82.0527
1 141.218 64.8625 82.2272
1 145.89 65.3527 82.4017
1 0.56064 65.8429 82.5762
1 5.23175 66.3331 82.7506
2 144.531 56.3113 113.7
1 140.578 58.7624 114.375
1 136.625 61.2135 115.051
1 132.672 63.6646 115.726
1 128.719 66.1157 116.402
2 104.255 74.9618 104.615
1 104.046 79.1451 102.483
1 103.837 83.3284 100.35
1 103.628 87.5117 98.2183
1 103.419 91.695 96.0861
2 131.166 97.6361 105.832
1 135.762 96.8325 106.397
1 140.358 96.0289 106.962
1 144.954 95.2252 107.527
1 149.55 94.4216 108.092
2 73.6084 97.502 107.17
1 78.2809 97.649 107.656
1 82.9534 97.796 108.141
1 87.6259 97.9431 108.627
1 92.2984 98.0901 109.113
2 114.401 92.4844 134.934
1 117.437 88.8981 134.829
1 120.473 85.3118 134.725
1 123.509 81.7254 134.62
1 126.545 78.1391 134.515
2 116.073 87.5711 129.369
1 119.839 90.0113 130.765
1 123.606 92.4515 132.161
1 127.372 94.8917 133.557
1 131.139 97.3319 134.952
2 131.339 49.5136 133.001
1 132.719 53.8155 131.705
1 134.099 58.1175 130.409
1 135.479 62.4194 129.114
1 136.859 66.7214 127.818
2 134.096 101.095 102.664
1 135.692 97.1699 104.697
1 137.288 93.2443 106.73
1 138.883 89.3187 108.763
1 140.479 85.3931 110.797
2 78.8951 103.777 30.3091
1 81.3796 103.654 34.2968
1 83.8641 103.531 38.2846
1 86.3485 103.407 42.2723
1 88.833 103.284 46.2601
2 66.5049 149.498 21.0265
1 71.0313 148.308 20.5949
1 75.5576 147.118 20.1633
1 80.084 145.929 19.7317
1 84.6103 144.739 19.3001
2 87.1891 130.174 48.7556
1 84.8627 134.229 48.2734
1 82.5363 138.285 47.7912
1 80.21 142.34 47.309
1 77.8836 146.395 46.8268
2 89.578 147.903 42.7597
1 93.465 147.382 45.3499
1 97.3521 146.861 47.9401
1 101.239 146.34 50.5303
1 105.126 145.819 53.1205
2 82.1015 118.008 143.543
1 80.7432 119.684 147.719
1 79.3849 121.36 1.89416
1 78.0265 123.036 6.06971
1 76.6682 124.713 10.2453
2 84.2837 144.17 37.1295
1 81.054 142.593 40.1579
1 77.8242 141.015 43.1862
1 74.5944 139.438 46.2145
1 71.3646 137.861 49.2429
2 118.152 128.784 149.164
1 117.717 133.136 0.885062
1 117.281 137.488 2.60568
1 116.845 141.839 4.3263
1 116.409 146.191 6.04691
2 103.781 145.574 61.7867
1 106.908 146.16 65.2466
1 110.034 146.747 68.7064
1 113.161 147.333 72.1663
1 116.288 147.919 75.6261
2 89.8365 148.379 64.0706
1 94.4957 147.777 64.2079
1 99.1549 147.175 64.3451
1 103.814 146.572 64.4823
1 108.473 145.97 64.6195
2 91.7855 106.999 76.6633
1 94.6927 108.296 80.121
1 97.5998 109.593 83.5786
1 100.507 110.891 87.0363
1 103.414 112.188 90.494
2 141.373 134.573 59.127
1 142.464 133.261 63.5063
1 143.555 131.949 67.8856
1 144.646 130.637 72.2648
1 145.738 129.325 76.6441
2 82.1206 108.494 52.1962
1 86.7588 108.168 51.5096
1 91.3969 107.842 50.823
1 96.0351 107.516 50.1364
1 100.673 107.19 49.4498
2 134.972 116.402 111.506
1 136.808 113.056 108.764
1 138.645 109.711 106.021
1 140.482 106.365 103.278
1 142.319 103.019 100.536
2 113.14 132.366 129.169
1 116.67 134.284 126.728
1 120.199 136.201 124.287
1 123.728 138.118 121.846
1 127.258 140.035 119.405
2 101.974 144.268 136.362
1 106.584 145.166 136.54
1 111.195 146.063 136.718
1 115.805 146.961 136.896
1 120.415 147.858 137.075
2 103.045 109.561 137.582
1 104.624 106.366 140.646
1 106.203 103.171 143.71
1 107.782 99.9759 146.775
1 109.361 96.781 149.839
2 136.525 126.206 120.305
1 137.246 122.203 122.66
1 137.967 118.199 125.014
1 138.689 114.196 127.368
1 139.41 110.192 129.722
2 90.4156 105.392 99.673
1 95.0741 105.61 100.257
1 99.7326 105.828 100.841
1 104.391 106.046 101.425
1 109.05 106.264 102.008
2 121.442 122.992 115.309
1 125.747 123.974 116.92
1 130.051 124.955 118.532
1 134.356 125.936 120.143
1 138.661 126.918 121.754
