LAMMPS (23 Jun 2022)
OMP_NUM_THREADS environment is not set. Defaulting to 1 thread. (src/src/comm.cpp:98)
  using 1 OpenMP thread(s) per MPI task
Created orthogonal box = (0 0 0) to (150 150 150)
  2 by 3 by 3 MPI processor grid
Read molecule template lig:
  1 molecules
  0 fragments
  5 atoms with max type 2
  4 bonds with max type 1
  3 angles with max type 1
  0 dihedrals with max type 0
  0 impropers with max type 0
Created 1 atoms
  using box units in orthogonal box = (0 0 0) to (150 150 150)
  create_atoms CPU = 0.000 seconds
Created 3000 atoms
  using lattice units in orthogonal box = (0 0 0) to (150 150 150)
  create_atoms CPU = 0.003 seconds
Finding 1-2 1-3 1-4 neighbors ...
  special bond factors lj:    0        1        1       
  special bond factors coul:  0        0        0       
     2 = max # of 1-2 neighbors
     2 = max # of 1-3 neighbors
     2 = max # of 1-4 neighbors
     7 = max # of special neighbors
  special bonds CPU = 0.001 seconds
3000 atoms in group ligands
Generated 0 of 6 mixed pair_coeff terms from geometric mixing rule
Neighbor list info ...
  update every 1 steps, delay 10 steps, check yes
  max neighbors/atom: 2000, page size: 100000
  master list distance cutoff = 60
  ghost atom cutoff = 60
  binsize = 30, bins = 5 5 5
  1 neighbor lists, perpetual/occasional/extra = 1 0 0
  (1) pair lj/expand, perpetual
      attributes: half, newton on
      pair build: half/bin/newton
      stencil: half/bin/3d
      bin: standard
Setting up Verlet run ...
  Unit style    : real
  Current step  : 0
  Time step     : 30
Per MPI rank memory allocation (min/avg/max) = 8.329 | 8.352 | 8.375 Mbytes
   Step          Temp          E_pair         E_mol          TotEng         Press     
         0   0              3.4015412e+13  3.7351619e-25  3.4015412e+13  2.7643062e+12
      5000   137.41353     -4461.3699      684.92719     -2547.6318     -16.044082    
     10000   137.78214     -5188.6059      645.19344     -3311.3053     -12.779323    
Loop time of 5.0524 on 18 procs for 10000 steps with 3001 atoms

Performance: 5130.236 ns/day, 0.005 hours/ns, 1979.258 timesteps/s
99.6% CPU use with 18 MPI tasks x 1 OpenMP threads

MPI task timing breakdown:
Section |  min time  |  avg time  |  max time  |%varavg| %total
---------------------------------------------------------------
Pair    | 0.35658    | 0.80699    | 1.2215     |  29.9 | 15.97
Bond    | 0.056922   | 0.097977   | 0.1299     |   7.2 |  1.94
Neigh   | 1.8517     | 1.8591     | 1.8661     |   0.3 | 36.80
Comm    | 1.6135     | 2.094      | 2.6285     |  21.6 | 41.45
Output  | 0.0013214  | 0.001333   | 0.0013529  |   0.0 |  0.03
Modify  | 0.076823   | 0.12557    | 0.16346    |   7.2 |  2.49
Other   |            | 0.06745    |            |       |  1.33

Nlocal:        166.722 ave         259 max         100 min
Histogram: 2 3 3 1 2 0 3 1 2 1
Nghost:        4815.78 ave        5201 max        4521 min
Histogram: 1 2 2 4 4 0 2 2 0 1
Neighs:           3395 ave        5974 max        1800 min
Histogram: 5 3 1 1 2 1 1 1 1 2

Total # of neighbors = 61110
Ave neighs/atom = 20.363212
Ave special neighs/atom = 3.5988004
Neighbor list builds = 909
Dangerous builds = 0
1 atoms in group nps
600 atoms in group amines
Generated 0 of 6 mixed pair_coeff terms from geometric mixing rule
Neighbor list info ...
  update every 1 steps, delay 10 steps, check yes
  max neighbors/atom: 2000, page size: 100000
  master list distance cutoff = 60
  ghost atom cutoff = 60
  binsize = 30, bins = 5 5 5
  3 neighbor lists, perpetual/occasional/extra = 1 2 0
  (1) pair lj/expand, perpetual
      attributes: half, newton on
      pair build: half/bin/newton
      stencil: half/bin/3d
      bin: standard
  (2) compute coord/atom, occasional
      attributes: full, newton on
      pair build: full/bin
      stencil: full/bin/3d
      bin: standard
  (3) compute coord/atom, occasional
      attributes: full, newton on
      pair build: full/bin
      stencil: full/bin/3d
      bin: standard
Setting up Verlet run ...
  Unit style    : real
  Current step  : 10000
  Time step     : 30
Per MPI rank memory allocation (min/avg/max) = 10.35 | 10.51 | 12.34 Mbytes
   Step          Temp          E_pair         E_mol          TotEng         Press     
     10000   137.78214     -5188.6059      645.19344     -3311.3053     -12.779323    
     15000   287.46849     -3911.5999      1276.666      -64.267139      6.5517439    
     20000   301.97186     -4150.5094      1212.8917     -237.25533     -11.795488    
     25000   296.1453      -4455.2496      1300.2551     -506.73588      2.0192411    
     30000   300.38841     -4913.4929      1316.2083     -911.08224     -8.5383675    
     35000   309.90565     -5053.0584      1228.5711     -1053.1777      2.7114923    
     40000   299.75188     -5415.8858      1332.8696     -1402.506      -14.224487    
     45000   297.18532     -5561.3179      1218.0613     -1685.6977      8.1791643    
     50000   297.64111     -5579.0684      1291.3835     -1626.05       -13.468338    
     55000   296.75524     -5752.745       1284.3659     -1814.6661     -19.555868    
     60000   298.84464     -5888.233       1264.2521     -1951.5836     -8.0808554    
     65000   298.50029     -6190.9251      1264.1617     -2257.4454     -11.051838    
     70000   300.6094      -6152.2553      1278.4197     -2185.657      -5.3657267    
     75000   297.5502      -6239.1746      1284.274      -2294.0788      15.360784    
     80000   298.96615     -6291.5248      1280.7657     -2337.2751      1.6781998    
     85000   300.7505      -6440.5028      1260.3844     -2490.6781      23.642257    
     90000   305.30945     -6410.9892      1353.116      -2327.6648      11.29868     
     95000   294.64527     -6406.3285      1328.5835     -2442.9003     -13.717495    
    100000   304.0306      -6498.5694      1251.4208     -2528.3762     -3.7354108    
    105000   303.9689      -6506.3589      1271.9258     -2516.2124     -12.314553    
    110000   304.3         -6500.739       1284.2085     -2495.349       8.5890924    
    115000   298.57398     -6552.7633      1305.1318     -2577.6545     -0.59104219   
    120000   301.97803     -6640.2766      1296.4561     -2643.403       2.6216634    
    125000   303.89955     -6526.1685      1299.2648     -2509.3032     -3.3410651    
    130000   292.6107      -6560.8557      1277.9799     -2666.2251      13.870835    
    135000   298.14552     -6691.0805      1276.5803     -2748.3548     -1.185173     
    140000   304.5729      -6650.8016      1281.3987     -2645.781       8.1125208    
    145000   299.66942     -6837.2959      1270.9779     -2886.5452      3.3869256    
    150000   295.55716     -6815.4196      1234.3685     -2938.0518     -14.600606    
    155000   301.39474     -6858.0619      1246.7655     -2916.0949      3.6337071    
    160000   304.53762     -6956.4268      1341.9965     -2891.1239     -6.9673138    
    165000   295.34265     -7102.2887      1309.41       -3151.7977      2.4085008    
    170000   295.50063     -7139.5568      1310.821      -3186.2419     -8.0344842    
    175000   293.20804     -7114.8894      1289.3763     -3203.5207     -15.748165    
    180000   295.01927     -7224.5489      1278.5162     -3307.8435     -8.1324598    
    185000   310.476       -7271.8327      1298.8305     -3196.5923     -10.689699    
    190000   294.68046     -7398.0184      1237.3713     -3525.4877     -13.567954    
    195000   303.66558     -7431.9057      1281.9077     -3434.4897      17.445206    
    200000   295.20836     -7512.1785      1235.7871     -3636.5112     -23.137373    
    205000   295.72932     -7544.451       1277.8367     -3622.0755     -22.921452    
    210000   300.11516     -7600.5904      1238.6435     -3678.1881      2.1648619    
    215000   303.99676     -7718.1257      1279.4899     -3720.166      -10.218815    
    220000   304.84456     -7741.5269      1258.5492     -3756.9265     -6.9213149    
    225000   289.92843     -7752.6563      1199.7017     -3960.2899     -6.7245467    
    230000   301.14359     -7849.9442      1301.2493     -3855.7394     -5.0435061    
    235000   291.25974     -7794.5631      1236.9727     -3953.0204     -17.359887    
    240000   306.72026     -7870.4508      1220.8484     -3906.778       11.109094    
    245000   305.06489     -7848.3815      1286.2674     -3834.0926     -5.686274     
    250000   297.4531      -7825.8419      1237.0383     -3928.8501     -20.191302    
    255000   304.16294     -7831.268       1218.7488     -3892.5634     -6.8578107    
    260000   301.67569     -7863.647       1222.6029     -3943.3302     -17.489753    
    265000   295.6433      -7858.9746      1322.1733     -3893.0318     -35.528154    
    270000   292.21766     -7935.2628      1278.9651     -4043.1616     -8.753774     
    275000   298.2519      -7872.7336      1227.7909     -3977.846      -11.709606    
    280000   297.72445     -7940.3265      1202.6581     -4075.2882      15.376133    
    285000   299.5245      -7954.1506      1232.891      -4042.7826      24.213994    
    290000   294.43163     -7995.2606      1218.7384     -4143.5879     -8.9920191    
    295000   304.27901     -7936.6971      1201.7903     -4013.913      -15.008399    
    300000   296.8297      -8015.0898      1260.7129     -4099.998       12.23306     
    305000   293.27055     -7999.8306      1226.909      -4150.3702      16.803519    
    310000   298.92111     -7943.8894      1276.5996     -3994.2087     -7.6248608    
    315000   303.17183     -7999.4822      1214.2839     -4074.1054     -13.198913    
    320000   300.29502     -8053.8552      1220.5569     -4147.9311     -20.434075    
    325000   298.50062     -7987.3009      1264.5432     -4053.4368      2.1330318    
    330000   305.9293      -8031.0636      1188.5175     -4106.7947     -13.158475    
    335000   304.91588     -7951.425       1238.3515     -3986.3845      13.729271    
    340000   311.18612     -8023.5914      1269.6405     -3971.1908      0.081036381  
    345000   302.74463     -8093.6658      1201.2084     -4185.1847      18.325187    
    350000   301.17713     -8209.6433      1188.9718     -4327.4161      10.189249    
    355000   297.36003     -8082.0449      1229.2887     -4193.6348     -29.388122    
    360000   296.29819     -8104.7858      1211.9848     -4243.175      -12.9405      
    365000   300.89457     -8072.9353      1218.7534     -4163.4532     -1.0247       
    370000   299.27021     -8234.5406      1232.0807     -4326.257       0.66225629   
    375000   307.15732     -8260.0155      1212.7283     -4300.5544     -22.081391    
    380000   299.82914     -8220.1038      1217.2981     -4321.6046     -13.305329    
    385000   298.44942     -8316.8096      1142.1433     -4505.8033      17.922853    
    390000   303.5218      -8217.4486      1266.9682     -4236.2579      19.342925    
    395000   305.75659     -8235.3555      1257.5768     -4243.5718     -0.14493447   
    400000   301.49779     -8228.4791      1217.8276     -4314.5286     -20.637033    
    405000   299.77351     -8205.2179      1208.7058     -4315.8084      3.7110278    
    410000   304.01431     -8288.4642      1237.3939     -4332.4435     -9.731442     
    415000   304.6138      -8256.9686      1220.2945     -4312.6865      12.426742    
    420000   304.43694     -8217.6969      1205.7206     -4289.5702      25.514944    
    425000   304.90796     -8338.1303      1202.4931     -4409.019      -30.100979    
    430000   290.09772     -8235.7185      1203.3712     -4438.1687      13.602062    
    435000   297.82486     -8272.3352      1227.1939     -4381.8633     -20.082142    
    440000   299.35025     -8234.2879      1234.9902     -4322.379      -1.0520776    
    445000   306.59312     -8221.1368      1211.8674     -4267.5818      2.297839     
    450000   298.2779      -8347.9701      1231.5202     -4449.1206     -7.4657092    
    455000   305.74752     -8231.4072      1181.6363     -4315.6451     -5.6361071    
    460000   300.3562      -8227.8716      1201.5749     -4340.3824      0.83856956   
    465000   297.49928     -8224.8994      1189.3253     -4375.2076     -11.659324    
    470000   298.79997     -8263.8528      1252.3099     -4339.545      -10.256096    
    475000   303.99352     -8246.3996      1238.7405     -4289.2183      16.148212    
    480000   296.50324     -8320.9072      1184.0897     -4485.358       5.9619222    
    485000   296.118       -8298.4717      1224.4088     -4426.0484      10.977042    
    490000   299.6956      -8307.7829      1215.5905     -4412.1855     -9.2982272    
    495000   299.01621     -8294.4139      1222.7957     -4397.6867      13.989533    
    500000   307.83132     -8312.7863      1190.8747     -4369.1516     -8.8020433    
    505000   307.83919     -8238.2278      1270.1299     -4215.2675      25.846663    
    510000   301.7564      -8306.3781      1193.5299     -4414.4127      9.4937613    
    515000   300.23649     -8255.3081      1125.5457     -4444.9185      10.245085    
    520000   302.10379     -8324.2346      1174.1329     -4448.5596     -13.189681    
    525000   300.59609     -8371.2773      1219.6078     -4463.61       -14.917218    
    530000   307.46425     -8377.9034      1211.6228     -4416.803       13.813388    
    535000   303.56855     -8190.8861      1242.0544     -4234.1912      6.9745076    
    540000   296.38047     -8267.4577      1236.9952     -4380.1009      4.6245991    
    545000   300.64597     -8402.7526      1195.6965     -4518.5505      13.534606    
    550000   300.30057     -8153.1174      1211.3892     -4256.3113      5.6470464    
    555000   296.71849     -8220.043       1274.4785     -4292.1801     -34.502494    
    560000   306.81506     -8315.7723      1190.8092     -4381.2909      11.534873    
    565000   302.93181     -8239.1202      1167.8382     -4362.3355     -8.0149872    
    570000   299.67025     -8308.4176      1191.9902     -4436.6471      20.695327    
    575000   301.36238     -8234.8357      1188.7628     -4351.161      -19.453873    
    580000   302.26776     -8286.2532      1227.6148     -4355.63       -12.194049    
    585000   308.3294      -8177.4797      1220.9413     -4199.3243      3.2360766    
    590000   300.0803      -8245.4848      1241.234      -4320.8037      19.719388    
    595000   299.95312     -8282.6364      1208.2457     -4392.0808      5.6160201    
    600000   299.26919     -8389.9898      1218.6677     -4495.1282     -38.802338    
    605000   302.46646     -8287.963       1242.609      -4340.5688      33.035807    
    610000   301.59616     -8294.9788      1212.5403     -4385.4359     -19.370131    
    615000   301.97193     -8269.4256      1221.1273     -4347.9354     -11.911614    
    620000   308.42494     -8326.6946      1250.3656     -4318.2605     -2.3285461    
    625000   301.9062      -8283.2954      1234.9352     -4348.5851     -11.318179    
    630000   298.15756     -8356.9912      1227.5898     -4463.1483     -7.0286102    
    635000   300.70497     -8240.495       1198.3847     -4353.0772     -13.565546    
    640000   306.39411     -8259.0823      1204.2139     -4314.9605     -10.176644    
    645000   302.31922     -8275.9581      1166.789      -4405.7006     -16.535795    
    650000   300.24776     -8234.8817      1266.012      -4283.925      -10.650202    
    655000   302.16185     -8325.302       1218.0779     -4405.1629     -28.011713    
    660000   298.86478     -8276.604       1211.813      -4392.2136     -16.597068    
    665000   303.78684     -8342.323       1257.5015     -4368.2289      3.2364721    
    670000   301.67986     -8412.3779      1236.9927     -4477.6341     -27.242668    
    675000   296.63143     -8327.9857      1199.2881     -4476.0917     -2.1205127    
    680000   298.84915     -8273.5242      1201.19       -4399.8965     -2.3778339    
    685000   300.57551     -8347.6516      1205.6919     -4454.0842     -19.95308     
    690000   295.26895     -8336.7374      1191.4187     -4504.8967      18.693993    
    695000   291.37452     -8255.4437      1183.8274     -4466.02        0.34971494   
    700000   301.71477     -8257.1015      1224.7224     -4334.3158     -2.3689811    
    705000   298.24723     -8323.9539      1147.9848     -4508.9141     -26.398681    
    710000   292.1349      -8247.7896      1175.3945     -4459.9992     -0.00139305   
    715000   295.13602     -8353.9123      1235.8689     -4478.8102     -2.2845723    
    720000   297.10294     -8293.9499      1222.3985     -4414.7291      2.8468234    
    725000   298.22299     -8236.3895      1242.856      -4326.6952      5.5227606    
    730000   299.57342     -8313.0296      1222.7537     -4411.3615      8.1282313    
    735000   298.59073     -8257.5589      1199.3792     -4388.0529      11.696348    
    740000   299.65022     -8239.1237      1229.7771     -4329.7454      11.674727    
    745000   305.53713     -8311.4666      1161.4476     -4417.7745      4.2289338    
    750000   298.16572     -8278.9854      1283.2607     -4329.3985     -6.9341047    
    755000   299.6355      -8343.6083      1259.3923     -4404.7464      23.111902    
    760000   301.75492     -8359.3035      1186.6371     -4474.2441     -2.7075693    
    765000   302.63788     -8368.5421      1224.4113     -4437.8127     -19.505269    
    770000   301.78244     -8326.4026      1188.9998     -4438.7344      1.6201667    
    775000   306.876       -8299.2364      1241.1865     -4313.8327      10.363056    
    780000   303.99693     -8252.2586      1169.3551     -4364.4322     -11.427625    
    785000   300.89795     -8254.5833      1232.1048     -4331.7195      4.6467087    
    790000   297.84476     -8195.8309      1210.3638     -4322.0111     -14.578824    
    795000   302.6461      -8262.4926      1260.4284     -4295.6726     -2.8445694    
    800000   303.18649     -8377.5129      1240.4883     -4425.8005     -29.316849    
    805000   293.38428     -8315.9838      1215.4509     -4476.9644      2.7131559    
    810000   309.65265     -8345.3018      1192.9334     -4383.3212     -1.1506555    
    815000   301.32632     -8272.9355      1175.6012     -4402.7448      1.2613212    
    820000   298.22565     -8306.3378      1239.9438     -4399.532      -8.3263272    
    825000   295.54844     -8272.7164      1186.6882     -4443.1069      7.1289118    
    830000   295.75344     -8316.3025      1186.8459     -4484.7021      8.3870221    
    835000   301.03674     -8325.2689      1237.0383     -4396.2306      2.2004805    
    840000   297.07078     -8272.2943      1229.4533     -4386.3063     -11.116788    
    845000   300.68557     -8224.6595      1244.4732     -4291.3266      5.814188     
    850000   303.42655     -8278.8974      1205.9184     -4359.6083      13.734932    
    855000   304.29183     -8186.6568      1217.857      -4247.6915     -3.250473     
    860000   293.37047     -8295.0348      1246.9328     -4424.657       6.9245558    
    865000   297.86871     -8360.9262      1210.5464     -4486.7097     -16.666973    
    870000   310.27825     -8276.8093      1224.9137     -4277.2541      4.1780575    
    875000   308.86085     -8321.143       1215.7011     -4343.4753     -26.816347    
    880000   298.98996     -8274.2576      1234.4719     -4366.0889     -5.8015043    
    885000   303.32925     -8233.8183      1259.2037     -4262.114      -18.001848    
    890000   305.75341     -8344.3169      1216.0733     -4394.065      -34.179532    
    895000   303.27497     -8224.7665      1211.1468     -4301.6045     -1.6314867    
    900000   299.16108     -8230.3553      1216.7007     -4338.4275     -14.658864    
    905000   307.01587     -8290.0678      1234.2976     -4310.3023     -9.2180133    
    910000   293.64044     -8333.1947      1204.5044     -4502.8311      1.627051     
    915000   295.97623     -8255.7652      1226.4931     -4382.5254      10.853629    
    920000   301.16312     -8332.0233      1235.6948     -4403.1984      22.841131    
    925000   298.66464     -8255.5386      1247.5246     -4337.2264     -2.9500461    
    930000   295.43745     -8294.2532      1235.1657     -4417.1588     -30.572474    
    935000   297.22054     -8295.3719      1211.2135     -4426.2845     -8.0769435    
    940000   298.80129     -8241.2062      1175.0742     -4394.1224      17.363399    
    945000   295.80658     -8304.287       1231.8928     -4427.1646      15.789364    
    950000   303.54472     -8256.6871      1184.7573     -4357.5023     -3.0426091    
    955000   299.35354     -8293.2273      1202.8415     -4413.4376     -10.090039    
    960000   306.31262     -8321.0112      1194.7448     -4387.0873      15.173327    
    965000   300.9442      -8392.3026      1224.9169     -4476.2132      12.247779    
    970000   301.83739     -8317.0675      1219.2131     -4398.6946     -3.0449133    
    975000   297.79973     -8349.2681      1218.2563     -4467.9585      29.182734    
    980000   296.88984     -8346.8408      1217.0948     -4474.8293     -15.557019    
    985000   297.14237     -8266.7931      1220.6136     -4389.0045     -6.7682672    
    990000   304.41439     -8291.3684      1237.8396     -4331.3244     -15.27755     
    995000   304.66345     -8251.2529      1193.7415     -4333.0798     -27.714954    
   1000000   299.79289     -8334.5523      1227.4502     -4426.225       17.86749     
   1005000   303.12315     -8343.5086      1201.5556     -4431.2954     -4.2479391    
   1010000   305.64466     -8239.4522      1216.0401     -4290.2061      12.457414    
   1015000   299.75025     -8276.1785      1176.7904     -4418.8923      10.888424    
   1020000   303.04822     -8334.4826      1216.7404     -4407.7546      3.7211117    
   1025000   302.50157     -8262.2807      1227.2059     -4329.9757      19.006732    
   1030000   295.86903     -8387.7843      1187.1995     -4554.7967      6.6506449    
   1035000   302.49106     -8376.6238      1221.464      -4450.1546     -8.1904701    
   1040000   305.70789     -8267.0649      1174.9388     -4358.3546      8.5307304    
   1045000   297.57432     -8270.6455      1219.2618     -4390.3461      6.1236123    
   1050000   296.80585     -8263.1599      1217.5668     -4391.4276     -23.096667    
   1055000   302.54017     -8170.2677      1192.7597     -4272.0636     -8.2960622    
   1060000   303.35347     -8297.1592      1210.5964     -4373.8456      20.699699    
   1065000   301.74361     -8165.2049      1200.6922     -4266.1915      17.610983    
   1070000   302.09321     -8273.647       1222.9022     -4349.2973      12.007388    
   1075000   299.73645     -8276.5816      1180.941      -4415.2683     -8.9972296    
   1080000   300.6466      -8274.82        1148.4064     -4437.9023      1.1494456    
   1085000   307.14706     -8214.2454      1255.8617     -4211.7426      11.955839    
   1090000   306.06544     -8353.6856      1214.2233     -4402.4934      25.995769    
   1095000   300.00105     -8273.2493      1239.2441     -4351.2668      3.5627372    
   1100000   297.57078     -8279.5071      1213.9701     -4404.531      -7.0563906    
   1105000   307.7438      -8215.0676      1209.4774     -4253.6127      7.0889139    
   1110000   304.95233     -8295.5382      1231.6576     -4336.8657      17.428321    
   1115000   295.08828     -8261.7687      1193.4377     -4429.5246     -7.3685125    
   1120000   301.37984     -8305.0782      1229.486      -4380.5241      28.133311    
   1125000   308.38745     -8254.5557      1262.958      -4233.8645      16.388052    
   1130000   298.78169     -8420.3094      1204.7831     -4543.6919     -15.93911     
   1135000   295.58304     -8288.529       1252.3172     -4392.9811     -6.3110109    
   1140000   306.09852     -8266.5828      1253.1347     -4276.1835      2.8550444    
   1145000   293.16559     -8370.0104      1219.8632     -4528.5343      5.4062308    
   1150000   299.6451      -8211.8112      1251.7519     -4280.5039      16.796034    
   1155000   295.54059     -8351.5736      1197.4303     -4511.2922     -7.9544033    
   1160000   299.76301     -8337.9855      1227.9227     -4429.453       34.803981    
   1165000   291.14116     -8242.6856      1195.4535     -4443.7226     -11.396036    
   1170000   296.51738     -8397.5008      1181.3568     -4564.558       3.9703687    
   1175000   299.95045     -8244.0964      1221.7401     -4340.0704     -12.840478    
   1180000   302.96853     -8235.344       1220.4559     -4305.6131      33.539253    
   1185000   299.1911      -8329.482       1207.2667     -4446.7198     -6.4302444    
   1190000   307.32071     -8334.0544      1227.5722     -4358.2882     -13.229157    
   1195000   297.48824     -8400.4214      1206.9926     -4533.1611     -8.2813786    
   1200000   301.5875      -8335.5017      1198.4862     -4440.0904     -14.256226    
   1205000   292.22413     -8328.8536      1181.7839     -4533.8758     -20.241615    
   1210000   298.19206     -8313.7625      1247.1271     -4400.0737      18.246632    
   1215000   295.31517     -8308.2724      1183.2801     -4484.157      -14.379687    
   1220000   298.86109     -8358.0951      1221.117      -4464.4337      14.936269    
   1225000   305.75909     -8368.5849      1219.4455     -4414.9101      21.051657    
   1230000   300.34388     -8280.9065      1199.6798     -4395.4224      16.154546    
   1235000   302.43477     -8298.1693      1226.4952     -4367.1723     -31.283842    
   1240000   296.07995     -8305.5636      1187.6036     -4470.2857     -8.5560925    
   1245000   301.45739     -8346.8959      1241.7352     -4409.399       2.1281353    
   1250000   299.48378     -8348.544       1254.1601     -4416.2712      21.852203    
   1255000   298.58299     -8267.3392      1245.4036     -4351.8781     -27.636868    
   1260000   294.37356     -8255.9719      1222.0378     -4401.519      -18.086926    
   1265000   303.99985     -8289.4068      1224.8694     -4346.0399      4.9376821    
   1270000   307.60912     -8308.5672      1208.3668     -4349.4273     -7.9176356    
   1275000   299.19746     -8185.1427      1205.6872     -4303.9031     -26.496628    
   1280000   299.25752     -8247.3481      1194.8154     -4376.4433      29.369736    
   1285000   302.75918     -8331.8737      1216.4251     -4408.0458     -13.121571    
   1290000   304.44081     -8281.4691      1246.98       -4312.0483      7.4599902    
   1295000   301.97736     -8254.6948      1242.1715     -4312.1118      19.400866    
   1300000   305.03288     -8251.5943      1192.3696     -4331.4895      38.083522    
   1305000   307.45748     -8303.8022      1224.0252     -4330.36       -11.069999    
   1310000   298.07803     -8298.063       1235.7019     -4396.8191     -12.476694    
   1315000   294.71849     -8329.6995      1222.4857     -4471.7142      13.576491    
   1320000   301.61452     -8162.6193      1186.3954     -4279.0571     -2.5529979    
   1325000   294.83114     -8322.8506      1274.1704     -4412.1733     -5.1589898    
   1330000   294.24437     -8289.9351      1196.3513     -4462.324      -10.813221    
   1335000   297.54903     -8317.5817      1223.3004     -4433.4698      5.7490405    
   1340000   294.82244     -8248.171       1201.5862     -4410.1556     -16.719519    
   1345000   295.08471     -8207.6919      1179.0584     -4389.859      -10.27147     
   1350000   299.45023     -8309.7222      1179.1217     -4452.7877     -29.521522    
   1355000   299.09932     -8323.7218      1208.5896     -4440.4574     -3.5051472    
   1360000   303.22582     -8321.9033      1218.4506     -4391.877      -11.012406    
   1365000   297.29128     -8337.129       1202.0228     -4476.5997      6.5047025    
   1370000   296.49812     -8301.6199      1199.0936     -4451.1126      9.1376817    
   1375000   298.76924     -8321.9813      1221.9303     -4428.3279      3.7841941    
   1380000   305.40269     -8316.0943      1252.3585     -4332.6936      3.3927025    
   1385000   304.98171     -8379.0813      1210.7749     -4441.0287      8.2635146    
   1390000   297.77274     -8440.3536      1236.3943     -4541.1474     -16.843562    
   1395000   302.9556      -8297.2478      1219.0537     -4369.0348      11.252402    
   1400000   294.73856     -8267.6179      1211.7817     -4420.1573     -5.4119491    
   1405000   302.05278     -8236.2547      1188.3933     -4346.7755     -3.7575525    
   1410000   296.7507      -8265.7024      1209.0611     -4402.9689     -18.137838    
   1415000   295.49879     -8476.8482      1153.8506     -4680.5203     -33.437658    
   1420000   299.26663     -8407.8185      1198.0125     -4533.635       16.509047    
   1425000   304.25684     -8173.6693      1186.8128     -4266.061      -3.7552403    
   1430000   298.74417     -8258.4228      1222.1722     -4364.7517      23.698601    
   1435000   296.17288     -8284.9974      1230.9836     -4405.5084     -16.90193     
   1440000   293.96451     -8277.8744      1211.297      -4437.8203      40.446179    
   1445000   296.43886     -8304.2342      1206.1664     -4447.1839      30.138356    
   1450000   307.0272      -8379.7009      1235.5912     -4398.5404     -7.0976535    
   1455000   298.26605     -8245.3651      1234.0003     -4344.1415     -4.43194      
   1460000   289.07662     -8325.3796      1170.1768     -4570.1554      1.7523419    
   1465000   305.27        -8307.4354      1223.2156     -4354.3641      11.398615    
   1470000   300.35058     -8307.5621      1238.0426     -4383.6553      10.978429    
   1475000   301.22206     -8318.3102      1212.7482     -4411.9048      14.077487    
   1480000   304.36024     -8396.265       1194.2355     -4480.3093      11.344142    
   1485000   304.42308     -8438.6755      1219.8253     -4496.568      -1.6335048    
   1490000   301.27101     -8382.6047      1244.9144     -4443.5953      7.8708642    
   1495000   306.13382     -8374.7449      1227.2024     -4409.9622      7.1383708    
   1500000   293.91664     -8472.8196      1223.7234     -4620.7672      0.021330355  
   1505000   305.72557     -8381.7279      1251.7236     -4396.0747     -9.9404294    
   1510000   305.59362     -8411.2391      1138.0697     -4540.4198      19.002563    
   1515000   301.28406     -8398.2663      1225.346      -4478.7087      2.5954753    
   1520000   303.39412     -8435.8928      1188.8076     -4534.0045     -5.794334     
   1525000   308.58449     -8493.7768      1210.9551     -4523.3263      13.010624    
   1530000   297.3385      -8373.6354      1235.9923     -4478.7144     -9.9172175    
   1535000   304.17037     -8392.9827      1260.191      -4412.7694      9.6824951    
   1540000   301.50917     -8446.3019      1183.2828     -4566.7944      7.0114625    
   1545000   301.3033      -8483.845       1235.2676     -4554.1936     -3.2807233    
   1550000   311.13751     -8372.7466      1219.4664     -4370.9547     -4.3800306    
   1555000   292.15715     -8329.4078      1188.3174     -4528.4954      0.87725995   
   1560000   299.80828     -8431.6909      1225.1962     -4525.48        9.7110387    
   1565000   306.92746     -8418.9144      1246.5454     -4427.6916     -17.909921    
   1570000   301.93838     -8474.424       1215.5197     -4558.8414     -30.337597    
   1575000   300.4426      -8357.1268      1199.6805     -4470.7594      0.73457919   
   1580000   303.18385     -8375.7222      1225.0842     -4439.4376      7.2035739    
   1585000   296.92276     -8439.9119      1230.9326     -4553.7683     -13.772647    
   1590000   297.33209     -8383.2349      1211.4935     -4512.8699     -19.585498    
   1595000   299.95167     -8377.2569      1230.665      -4464.295      -11.042304    
   1600000   303.95972     -8403.2184      1211.5144     -4473.5654      14.289865    
   1605000   294.62644     -8411.426       1228.5219     -4548.2277     -14.820528    
   1610000   298.06533     -8470.1735      1270.7469     -4533.9983     -4.3406912    
   1615000   295.24217     -8465.4603      1240.3566     -4584.9212      4.152142     
   1620000   298.44681     -8468.933       1311.4679     -4488.6253      4.2632904    
   1625000   299.60266     -8361.8909      1224.3798     -4458.3353     -8.2225371    
   1630000   301.16007     -8430.4651      1247.3499     -4490.0122      6.1030042    
   1635000   302.20985     -8387.9609      1200.3757     -4485.0947     -18.861435    
   1640000   301.60573     -8437.1449      1314.771      -4425.2858      14.000992    
   1645000   296.68498     -8392.4848      1236.3226     -4503.0776     -18.257797    
   1650000   297.29203     -8427.031       1183.7315     -4584.7862     -5.0432984    
   1655000   307.2287      -8406.8486      1216.7324     -4442.745       34.27916     
   1660000   297.70189     -8519.1683      1211.4964     -4645.4935     -9.5802716    
   1665000   299.34983     -8379.7111      1168.0677     -4534.7284      10.563078    
   1670000   300.6177      -8334.9708      1225.7819     -4420.9362      24.423753    
   1675000   302.1859      -8366.0276      1217.524      -4446.2272      1.3403397    
   1680000   301.71824     -8403.9482      1243.0473     -4462.8066      31.894491    
   1685000   299.01429     -8427.8273      1191.5867     -4562.3262     -12.592166    
   1690000   295.76077     -8405.0248      1178.5601     -4581.6447     -15.449542    
   1695000   306.73847     -8421.1966      1220.8366     -4457.3727     -2.2113204    
   1700000   296.51483     -8461.8765      1208.6576     -4601.6557     -30.377174    
   1705000   298.95008     -8364.9337      1228.7142     -4462.8793     -26.52164     
   1710000   302.47313     -8372.6025      1234.2308     -4433.5268      1.7574704    
   1715000   296.50381     -8361.484       1238.6028     -4471.4166     -22.644505    
   1720000   297.35164     -8325.8933      1218.2743     -4448.5728     -0.54776583   
   1725000   300.80072     -8294.0903      1215.8368     -4388.364       21.387471    
   1730000   292.10289     -8418.4831      1250.4183     -4555.9551     -9.5423546    
   1735000   303.733       -8448.1193      1244.8316     -4487.1766      0.88675649   
   1740000   297.03074     -8480.283       1233.0096     -4591.0967      28.635959    
   1745000   304.18112     -8402.0075      1214.1985     -4467.6907     -17.726633    
   1750000   295.30412     -8438.222       1251.431      -4546.0545     -14.553066    
   1755000   301.31116     -8383.3436      1253.7089     -4435.1807     -4.0223524    
   1760000   301.36181     -8332.4159      1180.5202     -4456.9887     -1.4468623    
   1765000   297.06847     -8379.7683      1219.247      -4504.0073      15.804455    
   1770000   295.20207     -8401.5384      1203.7164     -4557.998      -20.10524     
   1775000   302.64804     -8425.6715      1218.637      -4500.6256     -11.695142    
   1780000   307.37124     -8412.5767      1219.1341     -4444.7968      7.8782335    
   1785000   296.52108     -8471.1531      1220.0073     -4599.5267      33.522411    
   1790000   304.96028     -8407.3028      1198.1967     -4482.0202      5.3105645    
   1795000   298.64289     -8397.9076      1227.4103     -4499.9041     -14.969294    
   1800000   298.12657     -8490.7654      1223.5557     -4601.2337     -11.35193     
   1805000   303.80034     -8335.2665      1242.449      -4376.1042      10.324081    
   1810000   302.70426     -8377.2609      1217.1141     -4453.2351      6.3747681    
   1815000   296.17219     -8366.4773      1191.7597     -4526.2185      0.47498867   
   1820000   303.78466     -8363.7716      1263.2438     -4383.9547      4.9654302    
   1825000   296.44211     -8500.8973      1214.9487     -4635.0358      34.195076    
   1830000   297.53014     -8468.4281      1188.3984     -4619.3871     -6.0879992    
   1835000   297.09228     -8406.2649      1256.7475     -4492.7904     -21.080742    
   1840000   297.47083     -8440.6655      1232.3023     -4548.251       33.029547    
   1845000   305.19476     -8380.7359      1236.2944     -4415.2587      7.787043     
   1850000   304.22146     -8357.3378      1267.7361     -4369.1226     -7.3423884    
   1855000   299.09499     -8397.3708      1228.1938     -4494.5409      7.5225226    
   1860000   294.64253     -8419.2718      1227.4083     -4557.0433      6.4583815    
   1865000   301.55326     -8396.0812      1251.7864     -4447.6758      2.0076179    
   1870000   297.21082     -8444.6983      1197.4491     -4589.4622     -9.1341569    
   1875000   298.99862     -8394.3055      1200.95       -4519.5812     -5.3468263    
   1880000   290.81216     -8400.4904      1227.8205     -4572.1025      20.075381    
   1885000   299.51703     -8428.4578      1217.4616     -4532.586       12.993166    
   1890000   302.32488     -8426.8028      1195.1658     -4528.1179      20.951958    
   1895000   302.07072     -8458.8958      1230.8647     -4526.7848      7.7016808    
   1900000   294.29717     -8445.21        1268.4536     -4545.0245     -10.860995    
   1905000   290.58159     -8477.0038      1264.8063     -4613.6919     -10.212061    
   1910000   304.08703     -8462.2095      1203.7852     -4539.1472      0.14606188   
   1915000   300.78042     -8433.8308      1234.4141     -4509.7088     -0.053782421  
   1920000   306.21051     -8436.6348      1266.195      -4432.1737     -0.45394522   
   1925000   291.35328     -8440.6263      1189.7707     -4645.4492     -18.692233    
   1930000   303.54022     -8422.1277      1195.3903     -4512.3502      13.791999    
   1935000   298.16236     -8487.6977      1181.3017     -4640.1         16.269308    
   1940000   299.677       -8500.862       1200.1089     -4620.9125     -3.1480268    
   1945000   301.83718     -8394.6501      1181.0721     -4514.4201     -14.529537    
   1950000   301.85418     -8455.2621      1178.4078     -4577.5443      13.942958    
   1955000   295.40055     -8493.0269      1218.4867     -4632.9414      18.073592    
   1960000   302.40871     -8429.8418      1184.6105     -4540.9626      15.745643    
   1965000   294.95719     -8472.501       1212.4671     -4622.3998     -12.998835    
   1970000   298.23843     -8439.4239      1215.8534     -4556.5942     -11.476236    
   1975000   301.14978     -8483.2737      1195.2349     -4595.0279      14.057895    
   1980000   303.62206     -8376.5314      1184.0088     -4477.4036     -22.35545     
   1985000   304.85158     -8427.9395      1262.5087     -4439.3169      5.79422      
   1990000   296.43434     -8378.2813      1204.5429     -4522.8951     -20.917026    
   1995000   300.85151     -8427.8404      1227.5632     -4509.9336      1.1643146    
   2000000   296.93092     -8440.1126      1248.2402     -4536.5883     -13.360055    
   2005000   304.61424     -8373.4898      1153.5439     -4495.9543     -0.76854663   
   2010000   306.757       -8464.6672      1229.0956     -4492.4186      18.645926    
   2015000   294.61346     -8379.0093      1225.2086     -4519.2405      15.190257    
   2020000   299.96643     -8427.3219      1224.738      -4520.1551      5.2734222    
   2025000   296.34061     -8462.7593      1210.1748     -4602.5793     -3.8033955    
   2030000   309.88796     -8499.7361      1223.8508     -4504.734       1.0436389    
   2035000   304.24288     -8386.9448      1257.4507     -4408.8235     -13.601673    
   2040000   303.47945     -8388.2898      1208.746      -4465.7        -10.73653     
   2045000   303.29941     -8449.4494      1209.6793     -4527.5363      9.0543518    
   2050000   300.62215     -8465.4798      1207.8098     -4569.3774      13.889955    
   2055000   301.06797     -8399.982       1218.169      -4489.5338     -17.495913    
   2060000   299.41783     -8443.6043      1248.363      -4517.7183      35.923532    
   2065000   300.61369     -8414.4427      1166.4101     -4559.8157      10.174096    
   2070000   288.90249     -8429.1968      1227.3642     -4618.3423      5.4341327    
   2075000   306.8706      -8341.7231      1216.2295     -4381.3247     -7.1840666    
   2080000   296.02138     -8410.1319      1232.5143     -4530.4671     -0.25686934   
   2085000   299.79841     -8429.2355      1202.4926     -4545.8166     -8.5823733    
   2090000   296.16424     -8308.3676      1238.45       -4421.4895      3.0550541    
   2095000   298.38553     -8445.1704      1202.9315     -4573.9471      12.489296    
   2100000   301.62891     -8457.5299      1214.7052     -4545.5293     -4.4558406    
   2105000   297.11515     -8503.1647      1195.6128     -4650.6205      9.9582652    
   2110000   298.03774     -8363.1265      1173.9453     -4523.9995      11.866948    
   2115000   295.69192     -8521.1664      1195.72       -4681.242      -14.293347    
   2120000   291.64559     -8467.4331      1173.2571     -4686.1557      23.628041    
   2125000   297.58148     -8482.5705      1219.9232     -4601.5458     -9.3829788    
   2130000   294.25038     -8458.5837      1179.9712     -4647.299       13.909614    
   2135000   300.33913     -8416.6809      1229.5937     -4501.3256      2.5530183    
   2140000   300.08605     -8345.7854      1225.7305     -4436.5565     -8.7166519    
   2145000   301.50483     -8356.568       1180.428      -4479.9542      6.0143401    
   2150000   298.53706     -8478.5133      1243.312      -4565.5546      8.05193      
   2155000   298.33839     -8384.6791      1201.0504     -4515.7584     -16.90167     
   2160000   296.4991      -8567.6725      1180.4977     -4735.7523      11.614591    
   2165000   296.12031     -8391.2973      1210.5453     -4532.7168      10.287937    
   2170000   299.61225     -8509.1439      1231.0305     -4598.8517      6.4665357    
   2175000   306.58224     -8471.5256      1219.4449     -4510.4905      4.1351328    
   2180000   303.19671     -8406.1724      1225.5367     -4469.3202      11.577073    
   2185000   301.67966     -8480.2517      1201.2492     -4581.2532      12.103213    
   2190000   300.20148     -8437.6347      1202.772      -4550.3319      24.575568    
   2195000   297.5111      -8438.4539      1248.7178     -4529.2639      12.511212    
   2200000   301.3856      -8382.698       1193.8783     -4493.7001     -14.768691    
   2205000   297.74681     -8425.4666      1266.6154     -4496.2711      11.77612     
   2210000   291.86099     -8433.9525      1246.4963     -4577.5097     -2.070142     
   2215000   300.04495     -8447.2318      1244.5273     -4519.5736      6.7850284    
   2220000   301.52219     -8484.2248      1229.5827     -4558.3009      9.3727412    
   2225000   299.77237     -8475.9936      1185.8755     -4609.4247      27.822921    
   2230000   306.71594     -8439.7386      1202.0361     -4494.9167      17.545983    
   2235000   305.51012     -8400.4879      1261.347      -4407.1379     -4.4864179    
   2240000   297.47158     -8428.2434      1204.7132     -4563.4114     -33.831226    
   2245000   300.87191     -8407.6043      1200.7469     -4516.3313      11.860318    
   2250000   298.60718     -8328.42        1181.4858     -4476.6603      14.930032    
   2255000   295.56314     -8507.507       1210.9629     -4653.4913      3.0542949    
   2260000   303.54511     -8399.358       1194.9106     -4490.0164      3.0079866    
   2265000   301.07002     -8535.1466      1216.9985     -4625.8505     -21.593016    
   2270000   308.67952     -8411.4159      1221.4956     -4429.5753     -25.446724    
   2275000   308.23786     -8414.9424      1237.1595     -4421.3874     -5.2627648    
   2280000   299.71957     -8327.45        1224.6665     -4422.5622      19.37794     
   2285000   298.51493     -8334.2044      1239.6678     -4425.0877      0.096021689  
   2290000   304.03148     -8519.9167      1222.4244     -4578.712       7.2563903    
   2295000   295.95933     -8502.341       1175.2868     -4680.4585      12.990385    
   2300000   298.69388     -8457.376       1212.4779     -4573.8489     -6.5026153    
   2305000   306.90476     -8437.4061      1192.8698     -4500.062       12.158279    
   2310000   298.59934     -8416.2157      1259.949      -4486.063      -31.952048    
   2315000   296.6204      -8457.1509      1226.6149     -4578.0288     -5.7214459    
   2320000   301.62001     -8483.6063      1205.4195     -4580.9709      6.2700632    
   2325000   292.85073     -8457.2685      1245.1934     -4593.2779      14.770214    
   2330000   305.82964     -8377.5005      1166.0896     -4476.5507     -13.112176    
   2335000   301.15213     -8367.8107      1207.3932     -4467.3857      18.157097    
   2340000   307.13908     -8466.1013      1228.4887     -4491.0429     -12.509333    
   2345000   300.02548     -8383.1653      1243.8664     -4456.342       19.612189    
   2350000   306.32966     -8390.2457      1236.7916     -4414.1225     -1.5641896    
   2355000   297.0396      -8376.0674      1234.3        -4485.5115     -1.8829084    
   2360000   302.57806     -8440.8827      1147.607      -4587.4925     -17.776669    
   2365000   299.05234     -8450.8885      1212.5047     -4564.1291     -3.4188931    
   2370000   299.82228     -8443.8246      1193.6418     -4569.043       22.806319    
   2375000   287.4677      -8404.5137      1265.1921     -4568.6618      24.175608    
   2380000   304.18982     -8536.7666      1248.0624     -4568.5079     -2.0898217    
   2385000   294.54565     -8453.5853      1217.7832     -4601.8482      4.4225958    
   2390000   292.68396     -8393.3263      1231.0675     -4544.9528     -9.6331128    
   2395000   298.56893     -8437.0549      1249.0638     -4518.0592     -33.121063    
   2400000   309.55473     -8457.8071      1219.9151     -4469.7205      25.856881    
   2405000   301.50754     -8402.7124      1222.8437     -4483.6586     -6.3268006    
   2410000   308.46145     -8470.4468      1184.4739     -4527.5779     -19.408174    
   2415000   299.95474     -8427.8536      1178.3738     -4567.1554      23.773662    
   2420000   301.46358     -8457.4144      1238.0363     -4523.5611      6.8378239    
   2425000   291.74193     -8407.6131      1202.1841     -4596.5472      0.98798152   
   2430000   308.28122     -8343.8797      1209.2778     -4377.8186      13.304385    
   2435000   297.20593     -8403.2629      1214.7169     -4530.8027      17.739008    
   2440000   298.00495     -8365.0561      1257.5227     -4442.6449     -5.1699412    
   2445000   301.40296     -8437.4885      1211.9464     -4530.2671     -6.9213264    
   2450000   291.39352     -8360.1995      1178.2368     -4576.1965      10.757543    
   2455000   305.88916     -8435.5005      1262.5078     -4437.6002      3.3894358    
   2460000   294.41597     -8415.4272      1256.4515     -4526.1814      0.023069171  
   2465000   298.25295     -8431.1036      1238.2407     -4525.7568     -6.42291      
   2470000   301.67742     -8484.5706      1215.9494     -4570.8919     -6.9077096    
   2475000   305.79863     -8397.214       1209.1353     -4453.4958      9.2148919    
   2480000   312.37754     -8417.2407      1244.6832     -4379.1431      29.23748     
   2485000   304.50274     -8347.8757      1226.4355     -4398.4457      1.9481009    
   2490000   297.2685      -8516.4137      1238.1979     -4619.913      -12.126015    
   2495000   298.43678     -8434.7237      1226.8148     -4539.1588      15.853665    
   2500000   288.68672     -8489.015       1183.2342     -4724.22       -11.862672    
   2505000   295.21492     -8377.219       1265.6537     -4471.6266      10.555787    
   2510000   304.56906     -8365.9996      1218.1211     -4424.2909      3.4297965    
   2515000   295.93041     -8467.5657      1160.1193     -4661.1094      2.0619737    
   2520000   298.75169     -8355.1103      1258.7351     -4424.809      -12.738692    
   2525000   303.66929     -8443.1251      1213.5562     -4514.0274     -4.2910603    
   2530000   301.74593     -8454.1077      1185.5217     -4570.2441     -13.554053    
   2535000   309.28367     -8296.853       1161.6571     -4369.4483     -9.1330943    
   2540000   300.6384      -8488.8863      1205.8641     -4594.5842     -21.942101    
   2545000   302.29604     -8514.9294      1184.6612     -4627.0069      3.0662697    
   2550000   300.61436     -8499.2009      1172.9825     -4637.9954     -8.9344527    
   2555000   294.08984     -8467.8543      1196.5035     -4641.473      -7.4830641    
   2560000   294.72655     -8457.3127      1222.5043     -4599.2368      0.078529455  
   2565000   309.20299     -8437.2031      1234.3864     -4437.7906     -30.195111    
   2570000   300.54589     -8409.6579      1245.8735     -4476.1737      6.9779075    
   2575000   297.09143     -8445.2685      1211.8557     -4576.6935     -8.1005156    
   2580000   302.67062     -8418.8884      1205.2076     -4507.0699      4.1284804    
   2585000   292.98385     -8361.105       1272.5873     -4468.5301     -7.7754833    
   2590000   297.34174     -8437.6074      1251.8272     -4526.8224     -19.173697    
   2595000   295.02577     -8277.387       1215.8512     -4423.2885      5.5328539    
   2600000   308.76531     -8462.0505      1197.97       -4502.9682      26.877063    
   2605000   290.32555     -8456.0003      1182.3955     -4677.3887     -21.05721     
   2610000   301.71491     -8470.776       1179.9743     -4592.7372      7.5982752    
   2615000   298.8433      -8414.189       1147.1687     -4594.6349     -21.562932    
   2620000   306.34126     -8510.9135      1222.8868     -4548.5914     -31.508793    
   2625000   299.4345      -8434.1605      1239.8316     -4516.6568      18.62306     
   2630000   305.99587     -8377.0083      1252.3455     -4388.316       23.474749    
   2635000   296.93559     -8437.2114      1271.6743     -4510.2113      0.04335068   
   2640000   300.06905     -8401.0909      1262.7778     -4454.9666     -1.5225398    
   2645000   300.20101     -8480.1469      1210.2344     -4585.386      -12.008294    
   2650000   302.79025     -8443.9482      1239.422      -4496.8455      26.276845    
   2655000   303.92925     -8430.7942      1188.4866     -4524.4415     -18.855033    
   2660000   298.17873     -8448.5947      1189.4868     -4592.6655     -3.4265547    
   2665000   300.34338     -8449.0146      1203.3031     -4559.9118      2.742557     
   2670000   296.86327     -8427.4926      1245.5576     -4527.256      -9.6615201    
   2675000   301.26787     -8496.1255      1181.9437     -4620.1149     -3.0646645    
   2680000   292.88685     -8437.5725      1220.5337     -4597.9185      2.1954882    
   2685000   306.62088     -8504.3044      1199.7192     -4562.6495     -13.878344    
   2690000   305.45905     -8421.8003      1204.292      -4485.9621      10.580175    
   2695000   292.32181     -8423.6188      1258.2689     -4551.2825      8.6615645    
   2700000   299.62375     -8444.2951      1220.22       -4544.7106      22.708775    
   2705000   301.5839      -8397.4337      1211.0398     -4489.5009     -12.031949    
   2710000   305.2461      -8396.8775      1229.8609     -4437.3747     -8.0889945    
   2715000   295.88787     -8399.4381      1220.091      -4533.3905     -23.893629    
   2720000   292.74705     -8450.1139      1210.5704     -4621.6735      14.249654    
   2725000   299.35746     -8333.7854      1226.0326     -4430.7696     -7.8668629    
   2730000   304.68263     -8443.0498      1187.4724     -4530.9743      20.237584    
   2735000   299.51557     -8418.4411      1186.0835     -4553.9605      18.258166    
   2740000   294.93025     -8370.1124      1180.0217     -4552.6975     -24.765594    
   2745000   299.38263     -8502.5403      1215.4576     -4609.8744      8.8974013    
   2750000   302.17262     -8469.4771      1253.9908     -4513.3288      30.388964    
   2755000   302.69988     -8487.5574      1244.6364     -4536.0486     -3.5168618    
   2760000   302.32748     -8395.8646      1212.706      -4479.6162     -10.688178    
   2765000   290.37019     -8425.0563      1203.3362     -4625.1049      0.023526344  
   2770000   307.39551     -8427.1852      1221.7337     -4456.5886      36.751597    
   2775000   293.30819     -8355.7195      1220.6965     -4512.135      -11.978973    
   2780000   294.02447     -8383.6732      1267.8239     -4486.556       8.4692312    
   2785000   298.04408     -8384.0363      1202.2164     -4516.5816     -13.117411    
   2790000   305.0278      -8421.6184      1169.0842     -4524.8444      1.7045471    
   2795000   306.02627     -8363.313       1245.3157     -4381.3787      3.4429798    
   2800000   301.09332     -8325.6499      1187.2085     -4445.9355     -21.655413    
   2805000   297.36501     -8266.7327      1160.8078     -4446.7591      5.5260142    
   2810000   303.94944     -8348.3699      1222.0989     -4408.2243      28.970933    
   2815000   292.76267     -8403.6033      1258.9209     -4526.6727      9.3291777    
   2820000   301.37603     -8384.3681      1202.0248     -4487.3091     -6.5772734    
   2825000   303.20517     -8438.0691      1192.0472     -4534.6309     -31.914452    
   2830000   302.55097     -8353.9338      1205.6423     -4442.7506     -10.436088    
   2835000   305.24902     -8422.8518      1240.7696     -4452.4142     -5.5800099    
   2840000   302.03968     -8365.4297      1145.3097     -4519.1513      8.0082999    
   2845000   297.70618     -8386.2587      1228.1013     -4495.9407     -13.077791    
   2850000   296.5332      -8428.9606      1218.4646     -4558.7686     -29.6148      
   2855000   293.76987     -8349.2708      1182.2234     -4540.0309      12.530778    
   2860000   294.84907     -8430.9906      1170.396      -4623.9273     -16.208402    
   2865000   297.13565     -8397.4401      1266.2288     -4474.0965     -8.100313     
   2870000   289.91816     -8480.2608      1194.1141     -4693.5737     -7.1607781    
   2875000   297.1922      -8374.4004      1216.946      -4499.8338      17.107105    
   2880000   307.30402     -8441.0481      1190.4345     -4502.5689      13.751667    
   2885000   297.00417     -8377.9885      1225.8524     -4496.197       9.1018138    
   2890000   301.55913     -8312.3244      1205.0704     -4410.5826      25.125071    
   2895000   294.54848     -8295.5943      1226.0233     -4435.5917     -39.18152     
   2900000   290.87558     -8312.9043      1241.812      -4469.9578     -17.443176    
   2905000   297.92341     -8352.1044      1220.9209     -4467.0243      11.938966    
   2910000   296.08695     -8410.8375      1187.7268     -4575.3738      28.874574    
   2915000   299.00231     -8316.1245      1197.8419     -4444.4754     -3.8608245    
   2920000   301.02686     -8355.0351      1223.2398     -4439.8837      8.133444     
   2925000   300.62842     -8416.453       1252.3342     -4475.7702      1.4611002    
   2930000   296.12908     -8411.251       1207.7614     -4555.376      -10.121112    
   2935000   296.08497     -8406.3979      1249.9378     -4508.7409     -3.3601233    
   2940000   303.16226     -8425.9639      1191.1095     -4523.8471      9.5855078    
   2945000   305.31712     -8433.5003      1169.3255     -4533.8978     -17.397228    
   2950000   296.26341     -8363.7577      1177.2958     -4537.147       16.414871    
   2955000   300.38757     -8375.2969      1283.0558     -4406.0462     -5.7291374    
   2960000   306.93298     -8428.9962      1239.2698     -4444.9996      18.277429    
   2965000   302.25167     -8426.8479      1222.3324     -4501.6512     -14.626285    
   2970000   297.76579     -8534.7618      1217.958      -4654.0541     -15.053222    
   2975000   299.25024     -8406.483       1206.2083     -4524.2503     -3.3208345    
   2980000   300.99846     -8437.77        1179.0933     -4567.019      -18.862498    
   2985000   301.05609     -8358.8039      1194.2358     -4472.3951     -15.557464    
   2990000   300.19431     -8439.8633      1218.1484     -4537.2483      23.417779    
   2995000   297.17798     -8494.7196      1249.4891     -4587.7371     -4.1443391    
   3000000   303.03319     -8504.2772      1220.9712     -4573.453       9.9114442    
   3005000   302.59738     -8448.2468      1199.6879     -4542.6029      11.986531    
   3010000   303.17997     -8456.895       1186.95       -4558.7793      49.547538    
   3015000   296.44959     -8426.3247      1172.5608     -4602.7842     -0.29208764   
   3020000   295.55477     -8475.7639      1257.3028     -4575.4832     -18.741614    
   3025000   296.62507     -8401.9126      1223.1985     -4526.1651      5.6344105    
   3030000   288.70923     -8544.1978      1202.1202     -4760.3154      21.87611     
   3035000   303.19243     -8414.4464      1240.3008     -4462.8685      11.162437    
   3040000   301.89607     -8503.9628      1226.3818     -4577.8964      36.101157    
   3045000   299.14962     -8390.4002      1218.8911     -4496.3845     -19.234594    
   3050000   295.01423     -8369.4517      1221.1386     -4510.169      -0.82742906   
   3055000   297.29996     -8400.9105      1241.17       -4501.1564      26.890022    
   3060000   293.25308     -8341.5595      1144.8588     -4574.3055     -15.466278    
   3065000   297.60946     -8387.1293      1207.8669     -4517.9106     -14.298824    
   3070000   297.71242     -8424.1277      1193.323      -4568.5321     -10.550135    
   3075000   301.29445     -8375.0403      1170.8698     -4509.866       0.54786596   
   3080000   297.66347     -8314.9181      1221.5078     -4431.5756     -9.9506132    
   3085000   295.73664     -8299.4381      1218.5369     -4436.297       5.1731633    
   3090000   299.20137     -8383.5765      1216.177      -4491.8121      9.3140006    
   3095000   306.84807     -8435.5744      1192.806      -4498.801       15.656878    
   3100000   301.43835     -8374.1977      1262.6992     -4415.9071     -9.2967492    
   3105000   301.11857     -8423.7741      1226.3194     -4504.723      -0.25465263   
   3110000   295.11388     -8424.361       1218.654      -4566.6718     -9.9828212    
   3115000   298.20336     -8340.3585      1204.3061     -4469.3897     -7.2093732    
   3120000   303.01586     -8516.66        1197.37       -4609.5918     -5.4191989    
   3125000   301.15222     -8476.2203      1259.1109     -4524.0767      1.0837514    
   3130000   299.87945     -8373.3271      1195.4037     -4496.2724      6.9872962    
   3135000   294.99721     -8380.2176      1213.5799     -4528.6457     -24.036042    
   3140000   301.39844     -8372.0254      1199.1811     -4477.6098     -15.356477    
   3145000   302.94191     -8418.1008      1190.4906     -4518.5735     -21.421783    
   3150000   308.79964     -8518.6228      1167.8831     -4589.3204      39.017186    
   3155000   302.62521     -8517.7864      1242.5816     -4568.9999      4.8853278    
   3160000   293.60274     -8442.7249      1216.725      -4600.478       0.91330776   
   3165000   305.53117     -8458.2353      1165.4848     -4560.5594     -1.3514145    
   3170000   296.8792      -8398.7945      1237.9282     -4506.0449     -21.267385    
   3175000   297.39295     -8478.2755      1237.6711     -4581.1888     -8.3620069    
   3180000   304.44427     -8376.6919      1191.8554     -4462.3649     -19.586735    
   3185000   294.47762     -8405.9922      1229.8762     -4542.7705      1.1443256    
   3190000   312.59531     -8445.3954      1215.4043     -4434.6294      15.915134    
   3195000   306.38362     -8331.9113      1160.1089     -4431.9882      7.9599824    
   3200000   303.66108     -8465.2032      1192.0675     -4557.6677      58.664468    
   3205000   292.09221     -8474.5614      1272.2314     -4590.3158      13.156909    
   3210000   296.63746     -8338.2619      1249.4692     -4436.133      -5.446184     
   3215000   305.73677     -8430.2744      1173.0262     -4523.2185      0.37817028   
   3220000   297.06856     -8471.6972      1196.9365     -4618.2459      10.82392     
   3225000   298.47871     -8428.9421      1211.9454     -4547.8717      14.257994    
   3230000   300.21791     -8519.0161      1221.8282     -4612.5102     -20.984874    
   3235000   291.84909     -8429.4661      1196.9702     -4622.6558      5.1303763    
   3240000   298.90661     -8433.4152      1220.5804     -4539.8833      11.058227    
   3245000   296.317       -8387.7016      1228.4763     -4509.4312      0.44039578   
   3250000   296.51279     -8486.9438      1201.5994     -4633.7995     -5.8001094    
   3255000   291.5136      -8419.3042      1204.0941     -4608.3701      5.4033832    
   3260000   292.91        -8539.1142      1250.8157     -4668.9713     -5.8971322    
   3265000   300.94175     -8448.4734      1235.2915     -4522.0313      17.570523    
   3270000   297.10427     -8352.1334      1183.4231     -4511.8762      11.932482    
   3275000   300.01821     -8443.2451      1221.9266     -4538.4267      6.7248093    
   3280000   294.32084     -8408.4546      1220.4329     -4556.0781      3.1964172    
   3285000   298.41862     -8423.5415      1159.5656     -4595.3883     -18.789454    
   3290000   303.90622     -8446.9649      1178.4921     -4550.8127      4.7090333    
   3295000   307.81193     -8488.3193      1211.0456     -4524.687      -20.395025    
   3300000   297.8         -8420.2401      1183.2056     -4573.9788     -18.699499    
   3305000   302.93529     -8406.5143      1188.6322     -4508.9044      33.049136    
   3310000   300.87323     -8344.2491      1244.5134     -4409.1978     -12.502328    
   3315000   298.84049     -8387.3478      1225.6756     -4489.3121     -21.721199    
   3320000   297.94106     -8400.0495      1230.1572     -4505.5752     -19.207334    
   3325000   292.30617     -8439.086       1209.2202     -4615.9383      14.351426    
   3330000   308.08984     -8487.8487      1223.949      -4508.8278     -4.365575     
   3335000   306.81037     -8431.9182      1188.543      -4499.7449     -4.3949721    
   3340000   300.71126     -8435.1409      1175.1679     -4570.8835      19.1037      
   3345000   296.18432     -8439.0023      1263.5637     -4526.831       13.863709    
   3350000   290.51815     -8328.5502      1237.701      -4492.9109      15.996224    
   3355000   303.40059     -8337.963       1180.5577     -4444.2666     -5.6935689    
   3360000   299.67371     -8430.5446      1216.1935     -4534.5398     -4.2715848    
   3365000   309.4464      -8315.8604      1237.6457     -4311.012       5.3149908    
   3370000   300.1343      -8392.637       1173.8027     -4534.9043      3.7818622    
   3375000   307.47381     -8379.9382      1251.09       -4379.2851      12.702975    
   3380000   302.25438     -8450.4529      1243.5539     -4504.0103      0.053754079  
   3385000   302.31297     -8420.8626      1168.6622     -4548.7878      16.568945    
   3390000   297.96038     -8452.7166      1189.4534     -4598.7733     -2.8122596    
   3395000   299.65418     -8519.3173      1205.7698     -4633.9109     -12.832833    
   3400000   296.44443     -8445.3481      1186.0699     -4608.3446      16.585838    
   3405000   295.05782     -8408.2679      1232.5871     -4537.1469     -5.4844851    
   3410000   295.67047     -8428.1053      1205.4638     -4578.629       12.908342    
   3415000   292.32323     -8446.1241      1281.708      -4550.3361      0.59033187   
   3420000   299.23486     -8333.9498      1167.0305     -4491.0325     -28.628723    
   3425000   311.24654     -8425.4653      1239.9882     -4402.1767     -38.589414    
   3430000   297.97632     -8425.7338      1202.0752     -4559.0262     -3.0523926    
   3435000   288.80945     -8489.7508      1156.4556     -4750.6368     -2.4287868    
   3440000   301.72531     -8351.4964      1214.051      -4439.2879      8.1743757    
   3445000   305.72081     -8428.0081      1211.5285     -4482.5927     -7.4923872    
   3450000   290.57421     -8470.9342      1189.7018     -4682.7927     -11.094839    
   3455000   306.94599     -8582.7004      1234.7536     -4603.1037     -6.9787969    
   3460000   301.23958     -8546.1734      1181.2098     -4671.1497     -19.031097    
   3465000   294.48263     -8460.4437      1240.2584     -4586.795       0.6264547    
   3470000   310.98837     -8403.4177      1217.5087     -4404.9173      9.9526359    
   3475000   304.52509     -8478.4286      1229.1098     -4526.1244      7.9572693    
   3480000   297.97192     -8457.214       1208.5396     -4584.0814     -19.158005    
   3485000   300.82919     -8480.8783      1229.4019     -4561.3324      6.8043738    
   3490000   288.72731     -8460.3671      1239.2125     -4639.2309      22.556052    
   3495000   296.51106     -8477.6887      1185.1109     -4641.0484     -6.3844214    
   3500000   297.46006     -8504.365       1229.1677     -4615.1815     -19.469618    
   3505000   308.38559     -8517.8621      1250.3553     -4509.7902      4.2304386    
   3510000   301.54161     -8423.134       1197.1089     -4529.5103      0.52423734   
   3515000   298.31317     -8486.9136      1216.2302     -4603.0386     -27.545865    
   3520000   298.88889     -8407.4444      1172.9814     -4561.67        23.137427    
   3525000   292.30284     -8479.8681      1204.3463     -4661.624      -5.4365134    
   3530000   303.05555     -8455.1343      1190.453      -4554.6282      5.8286372    
   3535000   308.59581     -8418.9165      1255.0045     -4404.3156      22.974004    
   3540000   296.23646     -8410.2791      1234.8519     -4526.3534      9.141721     
   3545000   301.79535     -8430.1281      1229.933      -4501.4112      8.6975587    
   3550000   291.31939     -8452.0575      1236.041      -4610.9133     -22.222353    
   3555000   298.05444     -8463.9195      1266.9313     -4531.6572     -12.648489    
   3560000   303.03481     -8405.817       1227.9644     -4467.985      -15.361922    
   3565000   305.44232     -8333.8164      1258.7299     -4343.6899     -2.9399439    
   3570000   301.20535     -8379.7575      1240.1967     -4446.053       0.9211438    
   3575000   306.18374     -8492.8684      1212.5858     -4542.2559      16.898458    
   3580000   298.99735     -8349.8418      1201.891      -4474.1879     -8.0251228    
   3585000   299.69944     -8448.9194      1195.5297     -4573.3484      20.345728    
   3590000   292.47388     -8354.2792      1201.9647     -4536.8872      10.247917    
   3595000   300.02014     -8487.8922      1216.4729     -4588.5102     -25.248165    
   3600000   292.60168     -8408.2666      1214.3644     -4577.3321     -0.65848528   
   3605000   297.14727     -8425.3029      1209.4346     -4558.6496     -2.0218015    
   3610000   298.87924     -8355.9593      1238.6791     -4444.5735     -4.8822362    
   3615000   302.97124     -8452.6618      1253.0148     -4490.3479     -12.707564    
   3620000   301.41946     -8391.8363      1189.0661     -4507.3478      13.195271    
   3625000   299.72122     -8413.77        1240.7215     -4492.8125     -1.5838014    
   3630000   301.37105     -8416.9555      1221.0129     -4500.953      -33.301357    
   3635000   296.36103     -8407.7404      1245.3513     -4512.2013     -1.6620134    
   3640000   296.03741     -8515           1201.8964     -4665.8097     -21.42377     
   3645000   297.08189     -8383.5455      1225.0489     -4501.8626      15.216664    
   3650000   301.33946     -8516.1438      1235.2018     -4586.235      -32.202476    
   3655000   301.4883      -8429.1348      1225.4209     -4507.6758     -2.3645451    
   3660000   307.11932     -8391.5226      1230.2251     -4414.9045     -13.66079     
   3665000   306.71351     -8464.3709      1286.4737     -4435.133      -2.7422406    
   3670000   305.64634     -8427.2434      1188.4605     -4505.5619     -6.4951982    
   3675000   293.16425     -8430.6937      1219.925      -4589.1678      0.03433882   
   3680000   308.22287     -8495.7169      1237.4065     -4502.049      -17.601909    
   3685000   298.59252     -8418.5264      1200.1328     -4548.2509     -19.436709    
   3690000   301.94983     -8409.6594      1205.6552     -4503.8389      10.662116    
   3695000   304.73327     -8422.2313      1189.2832     -4507.8922      6.4738318    
   3700000   312.90501     -8304.2803      1262.7401     -4243.409      -9.0542056    
   3705000   312.39341     -8434.1562      1238.7639     -4401.836      -6.823506     
   3710000   306.61583     -8415.6612      1219.7263     -4454.0443     -11.444952    
   3715000   297.69416     -8465.3388      1200.3923     -4602.8372     -19.429484    
   3720000   301.08597     -8453.3033      1239.706      -4521.1571     -14.436462    
   3725000   295.48092     -8384.1431      1215.3262     -4526.4994      1.1773041    
   3730000   298.28907     -8346.121       1229.6072     -4449.0847     -15.581969    
   3735000   304.00538     -8370.7789      1188.3694     -4463.8626      13.117666    
   3740000   304.95466     -8413.4698      1206.4155     -4480.0186     -10.618109    
   3745000   297.97755     -8492.222       1246.7216     -4580.8569      4.0398696    
   3750000   299.51629     -8469.6678      1198.0881     -4593.1762      23.557595    
   3755000   293.31149     -8418.196       1197.2208     -4598.0577      5.6204736    
   3760000   299.65597     -8401.0888      1154.1362     -4567.3        -2.8138431    
   3765000   310.46359     -8444.2269      1233.9895     -4433.9385     -0.20069704   
   3770000   307.53485     -8430.7464      1178.074      -4502.5635     -11.466684    
   3775000   303.82245     -8381.84        1185.8028     -4479.1262      1.7423532    
   3780000   300.75587     -8574.325       1217.1697     -4667.6669     -4.5644952    
   3785000   306.91474     -8416.4319      1203.8843     -4467.984      -4.9192273    
   3790000   292.16694     -8441.1206      1225.1164     -4603.3217     -34.890815    
   3795000   293.98254     -8495.5563      1245.5662     -4621.0717     -11.310286    
   3800000   299.65385     -8306.284       1232.8649     -4393.7855      11.069465    
   3805000   298.41298     -8354.3446      1210.667      -4475.1403     -7.3149917    
   3810000   302.65886     -8449.4399      1216.681      -4526.2532      1.1673499    
   3815000   299.00218     -8419.3246      1200.7117     -4544.8068      15.312738    
   3820000   301.9206      -8399.6071      1247.609      -4452.0942     -13.450191    
   3825000   298.12468     -8457.7206      1222.2029     -4569.5585     -11.348395    
   3830000   301.29152     -8429.6419      1217.4549     -4517.9087     -15.455379    
   3835000   302.80429     -8439.9143      1164.3086     -4567.7994      6.362293     
   3840000   294.63704     -8451.55        1165.0248     -4651.7541     -0.14880306   
   3845000   304.19686     -8434.1946      1247.3595     -4466.5759     -5.0722388    
   3850000   302.79637     -8398.814       1216.0853     -4474.9932     -18.424955    
   3855000   296.50956     -8491.8101      1190.7861     -4649.508      -15.064082    
   3860000   302.74266     -8431.2007      1243.045      -4480.9006     -19.514007    
   3865000   305.52462     -8427.7711      1238.2584     -4457.3801      8.4208993    
   3870000   300.45809     -8476.148       1206.9681     -4582.3544     -4.5217644    
   3875000   305.40244     -8463.5497      1167.3618     -4565.1479      4.9174307    
   3880000   299.64672     -8354.3148      1213.599      -4461.1459      5.1631886    
   3885000   296.6891      -8421.777       1181.9989     -4586.6565     -16.954746    
   3890000   296.70666     -8421.6128      1195.4995     -4572.8347      5.2046593    
   3895000   307.588       -8531.2465      1201.7042     -4578.9581     -3.5212547    
   3900000   302.10402     -8455.3296      1188.3635     -4565.422      -30.274404    
   3905000   294.48518     -8312.6181      1251.2962     -4427.9088     -10.920533    
   3910000   306.9201      -8403.8092      1195.9895     -4463.2081     -11.448299    
   3915000   302.50468     -8415.7077      1251.5212     -4459.0594      5.1581027    
   3920000   307.5567      -8279.5315      1189.0333     -4340.194      -10.651313    
   3925000   299.77767     -8347.7214      1228.6166     -4438.3639      0.82405183   
   3930000   300.11233     -8385.9841      1196.6328     -4505.6177      6.4167885    
   3935000   299.4035      -8378.4356      1250.9805     -4450.0602     -16.665554    
   3940000   299.05122     -8457.7875      1214.8362     -4568.7067     -8.2789526    
   3945000   296.35408     -8422.0455      1237.112      -4534.8079      0.50906017   
   3950000   295.12091     -8384.555       1233.1196     -4512.3372     -11.144273    
   3955000   300.54507     -8421.8149      1171.1938     -4563.0179     -4.7983198    
   3960000   299.9587      -8409.1411      1241.6844     -4485.0969      11.932517    
   3965000   302.24118     -8384.3         1185.1818     -4496.3475      2.8940537    
   3970000   296.10755     -8380.8787      1197.3929     -4535.5647      2.6947497    
   3975000   311.25663     -8423.7646      1157.6995     -4482.6744     -3.6874987    
   3980000   298.37903     -8527.6836      1273.509      -4585.9409     -4.0634498    
   3985000   301.96891     -8419.5478      1224.0968     -4495.1151     -19.119081    
   3990000   308.27045     -8312.0445      1202.2934     -4353.0641      0.050519551  
   3995000   296.85104     -8413.7784      1252.3213     -4506.8873     -3.15434      
   4000000   309.70004     -8402.614       1240.4486     -4392.6944      24.877595    
   4005000   296.15152     -8380.3808      1193.8335     -4538.233       22.979497    
   4010000   301.52547     -8419.4523      1209.9553     -4513.1265     -4.5864255    
   4015000   299.78467     -8378.5611      1209.9289     -4487.8287      2.4035729    
   4020000   297.65924     -8442.8445      1238.4558     -4542.5917     -9.143411     
   4025000   293.30054     -8362.7534      1227.0332     -4512.9006     -0.50969813   
   4030000   305.32947     -8434.1028      1223.8583     -4479.857       6.7600201    
   4035000   297.24455     -8425.4253      1192.2646     -4575.072       6.6702103    
   4040000   309.9191      -8355.4032      1236.1866     -4347.7867     -16.012547    
   4045000   299.41715     -8515.1718      1222.1255     -4615.5294     -15.711041    
   4050000   302.5005      -8442.9965      1192.1331     -4545.7739      10.385002    
   4055000   306.11969     -8414.1614      1226.1331     -4450.5743     -7.2438199    
   4060000   298.26092     -8418.8376      1185.8457     -4565.8145      1.1435165    
   4065000   301.19683     -8395.8916      1209.8654     -4492.5947     -6.0429864    
   4070000   300.68748     -8417.9505      1133.8414     -4595.2323     -9.7419721    
   4075000   303.2155      -8465.5163      1178.7371     -4575.2959     -5.2043767    
   4080000   302.43593     -8379.3698      1229.4336     -4445.4239     -13.844506    
   4085000   297.51246     -8450.0474      1211.7631     -4577.7999      2.1374612    
   4090000   299.62708     -8450.394       1168.3287     -4602.6711     -3.7993744    
   4095000   305.55225     -8426.21        1219.4032     -4474.4271      14.569755    
   4100000   300.60794     -8400.1841      1182.0741     -4529.9445     -5.4099587    
   4105000   297.78687     -8338.5249      1201.6688     -4473.9179      28.991382    
   4110000   303.75959     -8482.1661      1163.9068     -4601.9104      23.60233     
   4115000   292.83616     -8501.1571      1168.6351     -4713.8551     -13.195361    
   4120000   304.63228     -8362.0227      1178.8721     -4458.9978     -8.6799302    
   4125000   301.19115     -8372.3004      1262.9213     -4415.9983     -3.4103498    
   4130000   301.27665     -8431.7198      1256.6344     -4480.9401     -0.75771367   
   4135000   299.79429     -8288.5119      1180.1546     -4427.4678      4.215136     
   4140000   298.0738      -8440.938       1266.0277     -4509.4062      5.781977     
   4145000   293.84786     -8378.9655      1227.6634     -4523.5881      8.2047145    
   4150000   297.28859     -8319.6297      1236.2211     -4424.9262     -20.71141     
   4155000   304.22571     -8339.5292      1256.3682     -4362.6438      4.6173825    
   4160000   296.99408     -8439.3219      1200.2844     -4583.1886     -16.867751    
   4165000   294.45327     -8383.2072      1188.8097     -4561.2698      17.066094    
   4170000   308.66382     -8383.009       1220.5249     -4402.2794     -24.781006    
   4175000   299.91464     -8428.9756      1166.0662     -4580.9437      2.1351539    
   4180000   299.14748     -8405.0344      1201.9169     -4528.0121     -8.963052     
   4185000   301.8535      -8521.6685      1184.4092     -4637.9555     -8.1965632    
   4190000   295.88916     -8460.47        1256.7849     -4557.717       22.365297    
   4195000   299.35034     -8466.0801      1202.7503     -4586.4103      4.1533053    
   4200000   300.22544     -8335.1963      1169.1108     -4481.3405     -13.857045    
   4205000   303.39647     -8416.8272      1207.3407     -4496.3847      5.8578928    
   4210000   303.60463     -8425.3696      1214.9958     -4495.4106     -21.34152     
   4215000   301.07101     -8573.1691      1202.5698     -4678.2929     -19.568694    
   4220000   309.63733     -8427.5766      1194.4218     -4464.2446     -26.73631     
   4225000   297.81944     -8491.6499      1232.1961     -4596.2244     -8.8371625    
   4230000   303.45559     -8519.6077      1223.4231     -4582.5542      18.59179     
   4235000   302.78651     -8422.8052      1191.6494     -4523.5086      3.5190416    
   4240000   305.31733     -8361.1293      1222.8499     -4408.0005      12.117256    
   4245000   303.15187     -8439.0241      1179.3157     -4548.794       6.0782762    
   4250000   303.50317     -8397.7403      1203.5429     -4480.1414     -13.249723    
   4255000   295.62366     -8386.7811      1235.4743     -4507.7128      24.772761    
   4260000   303.67439     -8383.3288      1175.7194     -4492.0224     -18.840719    
   4265000   305.34027     -8445.4594      1267.9726     -4447.0027      17.994854    
   4270000   294.78612     -8525.5628      1203.5259     -4685.9326     -5.8348134    
   4275000   304.5381      -8459.6381      1238.3031     -4498.0244     -32.326067    
   4280000   295.27011     -8347.8718      1162.453      -4544.9865     -13.22375     
   4285000   299.07614     -8433.3999      1166.2043     -4592.7282      9.6643768    
   4290000   305.34048     -8510.8123      1241.7952     -4538.5312      6.1267959    
   4295000   304.44386     -8399.0662      1226.8095     -4449.7888     -10.85194     
   4300000   302.47532     -8349.4134      1182.28       -4462.2689     -22.462395    
   4305000   294.51004     -8482.4724      1214.0875     -4634.7494      3.4350773    
   4310000   296.22604     -8461.981       1161.2573     -4651.7431     -6.5830554    
   4315000   302.20463     -8457.3116      1215.8767     -4538.9912      13.717098    
   4320000   299.14651     -8412.2295      1224.4859     -4512.6468      1.0801762    
   4325000   301.27016     -8440.2415      1170.1256     -4576.0286      21.591941    
   4330000   302.41195     -8399.5801      1235.6136     -4459.6687      5.5349953    
   4335000   303.28703     -8454.8841      1259.5423     -4483.2187     -22.833372    
   4340000   295.06989     -8481.8949      1221.9268     -4621.3262     -7.5156716    
   4345000   293.16791     -8403.6668      1189.5517     -4592.4816      0.19955737   
   4350000   307.73134     -8379.7116      1229.9686     -4397.8771     -15.745674    
   4355000   305.09522     -8401.8821      1211.2593     -4462.3301     -6.955816     
   4360000   301.15204     -8500.779       1179.8157     -4627.9321      2.621376     
   4365000   299.47649     -8456.9257      1182.1406     -4596.7375     -1.6924483    
   4370000   303.9633      -8467.1718      1223.0026     -4525.9986     -27.490339    
   4375000   294.93687     -8530.6348      1240.3516     -4652.8308     -3.7828378    
   4380000   300.61671     -8485.8383      1285.7679     -4511.8265      10.950596    
   4385000   302.16394     -8464.6732      1241.9468     -4520.6465      4.9606423    
   4390000   308.47832     -8366.9021      1120.1396     -4488.2167      0.71281739   
   4395000   305.72286     -8428.2414      1176.4127     -4517.9235      1.1597866    
   4400000   297.22439     -8460.6196      1215.5379     -4587.1733      11.177761    
   4405000   308.93463     -8501.1761      1182.4759     -4556.0738     -7.0488291    
   4410000   304.61607     -8469.5788      1170.5978     -4574.973       6.0073151    
   4415000   292.9921      -8432.3669      1184.534      -4627.7715     -6.3814685    
   4420000   305.3107      -8474.125       1171.7722     -4572.1332     -5.5138439    
   4425000   294.9124      -8502.4554      1192.7757     -4672.4461     -3.520307     
   4430000   296.96413     -8538.2937      1191.5958     -4691.1169      25.585499    
   4435000   301.51656     -8430.7787      1258.6881     -4475.7999      0.93188079   
   4440000   300.0472      -8509.7382      1195.9128     -4630.6743     -8.9529817    
   4445000   303.49493     -8500.9459      1251.6429     -4535.3208      6.9466289    
   4450000   297.57162     -8353.2154      1211.364      -4480.838      -9.5974377    
   4455000   299.85431     -8468.9148      1194.1556     -4593.333      -36.814201    
   4460000   299.51248     -8412.1924      1179.88       -4553.943       2.6671371    
   4465000   297.28558     -8415.4108      1196.5625     -4560.3927     -12.480405    
   4470000   300.96348     -8400.9006      1210.6211     -4498.9346      8.1324055    
   4475000   297.43939     -8446.867       1209.3883     -4577.6478      9.0124445    
   4480000   305.51848     -8462.6688      1183.0766     -4547.5146     -11.526287    
   4485000   301.84925     -8348.7108      1233.3045     -4416.1405     -7.2042269    
   4490000   297.56433     -8395.2781      1239.4713     -4494.8586      11.132986    
   4495000   298.09234     -8400.3987      1215.3555     -4519.3732      0.057492321  
   4500000   299.48005     -8457.5022      1218.9338     -4560.489      -0.32865511   
   4505000   303.2991      -8375.718       1215.7644     -4447.7226      6.1301759    
   4510000   304.65788     -8383.9368      1249.705      -4409.85        11.265352    
   4515000   294.43096     -8433.3625      1266.0891     -4534.345      -11.640035    
   4520000   292.76427     -8483.9843      1206.0012     -4659.959      -4.578251     
   4525000   308.06991     -8412.4175      1200.9492     -4456.5747      19.553946    
   4530000   307.77926     -8398.6935      1232.9851     -4413.4138     -1.5067718    
   4535000   299.29405     -8478.441       1189.653      -4612.3719      11.555884    
   4540000   293.536       -8497.2079      1167.3486     -4704.9341     -3.7027932    
   4545000   301.07125     -8423.5241      1178.6463     -4552.5692      23.930014    
   4550000   296.67011     -8388.3336      1215.3876     -4519.9943     -1.4089641    
   4555000   293.44409     -8464.2904      1233.3938     -4606.7934     -0.37167412   
   4560000   300.08087     -8428.9748      1177.9743     -4567.5482     -2.6518619    
   4565000   291.51014     -8471.5832      1179.9989     -4684.7752     -4.2691392    
   4570000   294.92417     -8396.2874      1197.4499     -4561.4987     -6.859626     
   4575000   304.7714      -8395.448       1238.0747     -4431.9763      22.608801    
   4580000   309.48763     -8444.7157      1187.6335     -4489.5107      18.37767     
   4585000   310.14065     -8341.0248      1221.6287     -4345.9849     -12.165857    
   4590000   301.41308     -8425.9564      1200.9873     -4529.6037     -1.5436841    
   4595000   295.91424     -8354.8568      1171.8932     -4536.7712     -15.330982    
   4600000   314.18597     -8378.064       1267.691      -4300.7868      10.031834    
   4605000   299.48009     -8453.2502      1205.5739     -4569.5966      0.085984821  
   4610000   303.21823     -8458.7139      1224.0275     -4523.1785      6.910819     
   4615000   301.20836     -8440.9692      1245.2751     -4502.1594      3.1842176    
   4620000   308.10541     -8428.5124      1211.8155     -4461.4857      32.033421    
   4625000   295.9907      -8426.7685      1195.7226     -4584.1697      1.2724551    
   4630000   296.31106     -8457.345       1200.89       -4606.7141      19.611461    
   4635000   303.85323     -8476.0489      1178.4999     -4580.3627      2.3289898    
   4640000   297.71373     -8390.342       1196.8399     -4531.2179      3.9538301    
   4645000   298.37526     -8352.4643      1254.6791     -4429.5853     -3.4131784    
   4650000   299.73077     -8420.1523      1225.3411     -4514.4897     -5.3620758    
   4655000   312.34925     -8438.3165      1257.1258     -4388.0294      10.969304    
   4660000   298.7982      -8426.1635      1198.2473     -4555.9342     -9.1294249    
   4665000   299.17054     -8383.2159      1186.225      -4521.6792     -1.0684575    
   4670000   303.04208     -8457.8969      1244.5358     -4503.4283      0.88575115   
   4675000   300.60521     -8346.7065      1188.7373     -4469.828       19.611741    
   4680000   305.46494     -8362.3504      1197.8631     -4432.8884     -1.6956989    
   4685000   304.80806     -8473.068       1233.8556     -4513.4877      3.3903091    
   4690000   308.79016     -8513.6261      1264.3526     -4487.9391     -5.4235554    
   4695000   290.62327     -8466.5723      1217.976      -4649.718       23.787275    
   4700000   302.82997     -8478.988       1190.1431     -4580.8091     -32.368797    
   4705000   306.28434     -8490.0741      1275.4089     -4475.7388     -12.3551      
   4710000   298.8189      -8417.981       1148.9349     -4596.879      -2.5653867    
   4715000   302.6871      -8415.9444      1158.5284     -4550.6577      16.44864     
   4720000   304.83868     -8389.6427      1204.7043     -4458.9398      20.087583    
   4725000   299.64798     -8442.0967      1190.3006     -4572.215      -6.1966647    
   4730000   303.75865     -8472.2101      1230.2263     -4525.6433      5.4988712    
   4735000   288.88063     -8529.6633      1192.9352     -4753.4332      10.482877    
   4740000   294.93137     -8486.7534      1157.9026     -4691.4476      13.115651    
   4745000   298.89361     -8489.0839      1187.4264     -4628.8223      37.231824    
   4750000   303.78459     -8465.2754      1260.4129     -4488.2899      14.994918    
   4755000   305.89588     -8527.0901      1176.1005     -4615.537      -7.4600911    
   4760000   296.44029     -8426.494       1224.1521     -4551.4454      8.6403047    
   4765000   302.32398     -8383.9139      1233.7222     -4446.6806      32.027726    
   4770000   307.85139     -8450.1599      1207.1708     -4490.0496      10.536152    
   4775000   294.7142      -8358.8737      1286.5841     -4436.8284      6.766335     
   4780000   301.22114     -8381.1253      1227.5688     -4459.9075     -6.3595923    
   4785000   294.58222     -8457.7093      1229.465      -4593.9634     -5.7167881    
   4790000   300.00519     -8442.4125      1228.0167     -4531.6204     -7.9209929    
   4795000   299.23641     -8418.1305      1228.4361     -4513.7938     -16.232282    
   4800000   303.95312     -8350.9976      1222.2577     -4410.6604      17.414692    
   4805000   302.95314     -8482.4098      1228.8822     -4544.3902      19.030383    
   4810000   300.66431     -8421.1335      1237.1847     -4495.2792     -9.9069676    
   4815000   297.2565      -8434.1212      1212.7912     -4563.1346      1.2361648    
   4820000   301.35843     -8416.5377      1232.2143     -4489.4468      26.652441    
   4825000   302.35027     -8449.058       1207.2954     -4538.0165     -3.7262865    
   4830000   301.13763     -8436.6554      1209.8042     -4533.9489     -9.1741969    
   4835000   294.50848     -8493.2673      1176.7322     -4682.9136      3.4141216    
   4840000   290.89479     -8443.3809      1213.4699     -4628.6046      24.138709    
   4845000   306.3238      -8369.6058      1212.4117     -4417.9149      22.006103    
   4850000   299.8644      -8495.1453      1201.9683     -4611.6605     -5.6404308    
   4855000   310.53456     -8484.2287      1224.6861     -4482.609       12.47499     
   4860000   309.21486     -8433.8586      1220.6608     -4448.0655      2.2062559    
   4865000   306.76008     -8417.7934      1242.4221     -4432.1907      23.574837    
   4870000   296.48289     -8556.2286      1211.5467     -4693.4043      3.4718715    
   4875000   292.48916     -8340.1521      1223.5562     -4501.0321     -4.1485034    
   4880000   294.99128     -8414.5296      1231.3573     -4545.2334      3.9827494    
   4885000   301.58919     -8321.031       1234.9658     -4389.125       23.296343    
   4890000   300.24039     -8368.574       1226.0328     -4457.6625      6.3111312    
   4895000   299.96113     -8461.7279      1194.8169     -4584.5295     -10.892517    
   4900000   299.30275     -8424.791       1261.9162     -4486.3809      5.7226922    
   4905000   296.96951     -8450.8273      1179.0748     -4616.1234     -5.3514251    
   4910000   295.70442     -8509.7934      1196.2163     -4669.2609     -4.9805289    
   4915000   299.27656     -8454.659       1205.0898     -4573.3095     -7.7034759    
   4920000   303.61889     -8583.0018      1220.2912     -4647.6198     -3.4147775    
   4925000   301.44688     -8455.2364      1197.046      -4562.5227      8.9114868    
   4930000   299.5212      -8515.5155      1193.9151     -4643.153      -4.874279     
   4935000   293.97206     -8379.4526      1232.6038     -4518.0243     -20.186801    
   4940000   297.00363     -8356.4874      1201.2818     -4499.2713     -4.4514895    
   4945000   307.74042     -8436.5252      1234.4313     -4450.1467     -3.3582933    
   4950000   305.55829     -8393.9728      1218.8461     -4442.6931     -11.32236     
   4955000   297.82721     -8401.3424      1245.0968     -4492.9465     -16.29014     
   4960000   299.38096     -8407.5535      1215.9794     -4514.3807     -9.1667801    
   4965000   302.84248     -8359.9771      1168.488      -4483.3414     -12.178958    
   4970000   301.7555      -8311.1467      1199.2546     -4413.4646     -9.8299652    
   4975000   302.12068     -8481.1098      1156.6912     -4622.7256     -7.9155805    
   4980000   297.42356     -8396.4345      1167.3246     -4569.4205     -1.2065492    
   4985000   299.60938     -8466.8163      1210.2646     -4577.3158     -22.440887    
   4990000   290.27123     -8413.2553      1232.3812     -4585.1439     -17.874312    
   4995000   297.37935     -8433.5142      1169.7266     -4604.4936      10.974533    
   5000000   299.08535     -8429.7102      1228.1091     -4527.0513     -13.63429     
   5005000   294.41781     -8452.7634      1211.5673     -4608.3854      14.325272    
   5010000   300.64715     -8438.703       1192.4894     -4557.6975      1.4268294    
Loop time of 7560.86 on 18 procs for 5000000 steps with 3001 atoms

Performance: 1714.091 ns/day, 0.014 hours/ns, 661.300 timesteps/s
99.7% CPU use with 18 MPI tasks x 1 OpenMP threads

MPI task timing breakdown:
Section |  min time  |  avg time  |  max time  |%varavg| %total
---------------------------------------------------------------
Pair    | 41.969     | 778.99     | 2983.3     |3101.0 | 10.30
Bond    | 5.3097     | 48.194     | 160.91     | 665.2 |  0.64
Neigh   | 2921.9     | 2933.4     | 2954.8     |  22.9 | 38.80
Comm    | 1238.5     | 3662.8     | 4486.4     |1581.9 | 48.44
Output  | 24.074     | 24.13      | 24.16      |   0.5 |  0.32
Modify  | 8.4889     | 54.823     | 181.39     | 686.7 |  0.73
Other   |            | 58.45      |            |       |  0.77

Nlocal:        166.722 ave         647 max           8 min
Histogram: 8 0 5 2 1 0 0 0 0 2
Nghost:        5076.83 ave        6334 max        3175 min
Histogram: 2 0 0 2 4 2 0 1 4 3
Neighs:        5520.94 ave       23369 max         149 min
Histogram: 8 0 5 3 0 0 0 0 1 1
FullNghs:      11041.9 ave       45703 max         367 min
Histogram: 8 0 6 2 0 0 0 0 0 2

Total # of neighbors = 198754
Ave neighs/atom = 66.229257
Ave special neighs/atom = 3.5988004
Neighbor list builds = 500000
Dangerous builds = 500000
Total wall time: 2:06:05
