LAMMPS (23 Jun 2022)
OMP_NUM_THREADS environment is not set. Defaulting to 1 thread. (src/src/comm.cpp:98)
  using 1 OpenMP thread(s) per MPI task
Created orthogonal box = (0 0 0) to (150 150 150)
  2 by 3 by 3 MPI processor grid
Read molecule template lig:
  1 molecules
  0 fragments
  5 atoms with max type 2
  4 bonds with max type 1
  3 angles with max type 1
  0 dihedrals with max type 0
  0 impropers with max type 0
Created 1 atoms
  using box units in orthogonal box = (0 0 0) to (150 150 150)
  create_atoms CPU = 0.001 seconds
Created 3000 atoms
  using lattice units in orthogonal box = (0 0 0) to (150 150 150)
  create_atoms CPU = 0.003 seconds
Finding 1-2 1-3 1-4 neighbors ...
  special bond factors lj:    0        1        1       
  special bond factors coul:  0        0        0       
     2 = max # of 1-2 neighbors
     2 = max # of 1-3 neighbors
     2 = max # of 1-4 neighbors
     7 = max # of special neighbors
  special bonds CPU = 0.001 seconds
3000 atoms in group ligands
Generated 0 of 6 mixed pair_coeff terms from geometric mixing rule
Neighbor list info ...
  update every 1 steps, delay 10 steps, check yes
  max neighbors/atom: 2000, page size: 100000
  master list distance cutoff = 60
  ghost atom cutoff = 60
  binsize = 30, bins = 5 5 5
  1 neighbor lists, perpetual/occasional/extra = 1 0 0
  (1) pair lj/expand, perpetual
      attributes: half, newton on
      pair build: half/bin/newton
      stencil: half/bin/3d
      bin: standard
Setting up Verlet run ...
  Unit style    : real
  Current step  : 0
  Time step     : 30
Per MPI rank memory allocation (min/avg/max) = 8.329 | 8.352 | 8.375 Mbytes
   Step          Temp          E_pair         E_mol          TotEng         Press     
         0   0              4.8593446e+13  3.7351619e-25  4.8593446e+13  3.9490088e+12
      5000   135.10672     -7636.8133      768.22473     -5660.4061     -6.0648495    
     10000   137.53273     -8595.2053      746.62439     -6618.7041     -7.5708452    
Loop time of 5.54725 on 18 procs for 10000 steps with 3001 atoms

Performance: 4672.587 ns/day, 0.005 hours/ns, 1802.696 timesteps/s
99.7% CPU use with 18 MPI tasks x 1 OpenMP threads

MPI task timing breakdown:
Section |  min time  |  avg time  |  max time  |%varavg| %total
---------------------------------------------------------------
Pair    | 0.49682    | 0.93826    | 1.7013     |  34.7 | 16.91
Bond    | 0.067397   | 0.099694   | 0.13836    |   6.9 |  1.80
Neigh   | 1.8925     | 1.9002     | 1.9068     |   0.3 | 34.25
Comm    | 1.563      | 2.409      | 2.9159     |  24.4 | 43.43
Output  | 0.0013793  | 0.0013931  | 0.0014233  |   0.0 |  0.03
Modify  | 0.089006   | 0.12679    | 0.17559    |   7.5 |  2.29
Other   |            | 0.07192    |            |       |  1.30

Nlocal:        166.722 ave         249 max          92 min
Histogram: 2 1 3 1 4 2 1 0 1 3
Nghost:         4963.5 ave        5370 max        4563 min
Histogram: 2 1 1 1 3 5 1 1 1 2
Neighs:        3941.83 ave        7098 max        1646 min
Histogram: 4 0 3 3 2 0 2 1 1 2

Total # of neighbors = 70953
Ave neighs/atom = 23.643119
Ave special neighs/atom = 3.5988004
Neighbor list builds = 909
Dangerous builds = 0
1 atoms in group nps
600 atoms in group amines
Generated 0 of 6 mixed pair_coeff terms from geometric mixing rule
Neighbor list info ...
  update every 1 steps, delay 10 steps, check yes
  max neighbors/atom: 2000, page size: 100000
  master list distance cutoff = 60
  ghost atom cutoff = 60
  binsize = 30, bins = 5 5 5
  3 neighbor lists, perpetual/occasional/extra = 1 2 0
  (1) pair lj/expand, perpetual
      attributes: half, newton on
      pair build: half/bin/newton
      stencil: half/bin/3d
      bin: standard
  (2) compute coord/atom, occasional
      attributes: full, newton on
      pair build: full/bin
      stencil: full/bin/3d
      bin: standard
  (3) compute coord/atom, occasional
      attributes: full, newton on
      pair build: full/bin
      stencil: full/bin/3d
      bin: standard
Setting up Verlet run ...
  Unit style    : real
  Current step  : 10000
  Time step     : 30
Per MPI rank memory allocation (min/avg/max) = 10.35 | 10.51 | 12.34 Mbytes
   Step          Temp          E_pair         E_mol          TotEng         Press     
     10000   137.53273     -8595.2053      746.62439     -6618.7041     -7.5708452    
     15000   305.71511     -7367.3635      1295.9438     -3337.5836      13.028863    
     20000   294.56484     -7814.4293      1278.6291     -3901.6746      0.21920793   
     25000   299.11682     -8021.1402      1292.2748     -4054.0341      1.5317574    
     30000   299.50864     -8234.0082      1306.9218     -4248.7513      1.898375     
     35000   303.47655     -8470.8031      1299.885      -4457.1003     -16.745212    
     40000   290.51198     -8561.4971      1305.2227     -4658.3913      7.6528052    
     45000   297.38878     -8710.1204      1342.2325     -4708.5096     -1.4681697    
     50000   303.3476      -8912.4885      1300.5841     -4899.2397     -10.280889    
     55000   301.76126     -9074.1182      1274.9643     -5100.6749      10.270614    
     60000   300.72245     -9333.8164      1267.1173     -5377.5095     -1.1029754    
     65000   302.27641     -9509.2756      1271.1109     -5535.0789     -6.6163281    
     70000   309.62035     -9686.1971      1292.2749     -5625.1638     -2.4317618    
     75000   304.55572     -9723.9864      1269.5638     -5730.9543      14.799324    
     80000   295.087       -9827.7753      1251.7515     -5937.2289     -5.3207699    
     85000   294.1383      -9945.6386      1295.5805     -6019.747      -17.391587    
     90000   299.1053      -10045.345      1303.2773     -6067.3399      9.2858525    
     95000   303.21024     -10136.309      1250.5963     -6174.276       20.789613    
    100000   305.4251      -10052.352      1297.8948     -6023.2146      3.6862697    
    105000   293.29773     -10110.604      1347.0136     -6140.7956      2.6827801    
    110000   298.84222     -10127.357      1322.0351     -6132.9467     -4.6517275    
    115000   300.38418     -10379.156      1296.7766     -6396.215      -0.88144439   
    120000   291.87985     -10446.754      1334.1509     -6502.4875     -9.2689181    
    125000   298.74318     -10314.275      1267.0737     -6375.7113      10.82652     
    130000   291.29997     -10491.446      1295.5745     -6590.9419     -3.3038722    
    135000   292.23993     -10562.048      1280.5403     -6668.1724      2.8704497    
    140000   302.49252     -10658.473      1279.3622     -6674.0926      13.436647    
    145000   300.243       -10661.698      1256.5563     -6720.2402     -4.9006302    
    150000   296.98614     -10807.254      1255.2815     -6896.1949     -14.472391    
    155000   295.39583     -10878.251      1244.6622     -6992.0321     -2.5409884    
    160000   299.25114     -10822.427      1298.7695     -6847.6251      2.1725442    
    165000   299.62556     -10814.718      1267.2846     -6868.0524      9.3331164    
    170000   299.31461     -10944.353      1240.1369     -7027.6157     -1.0723416    
    175000   300.68448     -10898.421      1292.0247     -6917.5463      11.166991    
    180000   291.98201     -11015.813      1245.7547     -7159.0297      12.731318    
    185000   292.20441     -10997.373      1278.3709     -7105.9843      2.1621559    
    190000   298.74284     -11112.858      1263.4815     -7177.8893      15.21046     
    195000   297.03826     -11072.611      1262.4919     -7153.8751     -29.952427    
    200000   300.70591     -11167.469      1263.3556     -7215.0714      12.372076    
    205000   306.41848     -11119.518      1270.7904     -7108.6015     -19.470077    
    210000   296.77765     -11246.363      1303.166      -7289.2833      17.833516    
    215000   297.50704     -11275.298      1302.4694     -7312.3928     -27.457965    
    220000   301.14945     -11276.884      1274.0967     -7309.7794      9.6141292    
    225000   301.5201      -11348.776      1274.876      -7377.5778     -13.154377    
    230000   299.4107      -11331.479      1300.4709     -7353.5492     -10.98777     
    235000   302.64596     -11292.397      1217.5955     -7368.4113     -16.883926    
    240000   300.95972     -11434.152      1291.6373     -7451.2032     -9.567859     
    245000   295.01843     -11446.943      1276.4486     -7532.3131     -17.383935    
    250000   297.95858     -11471.494      1224.926      -7582.094       44.148202    
    255000   295.44908     -11498.543      1316.8629     -7539.6476      7.6386161    
    260000   302.15427     -11625.439      1289.3268     -7634.119       7.6286186    
    265000   297.33509     -11600.557      1224.3633     -7717.2952     -9.4919548    
    270000   301.53764     -11644.695      1301.7291     -7646.4872     -5.9307324    
    275000   297.26205     -11565.009      1280.1815     -7626.5825      21.205896    
    280000   298.29279     -11742.689      1273.966      -7801.2604     -4.0014794    
    285000   294.9545      -11693.433      1287.345      -7768.478       3.7907662    
    290000   300.10492     -11742.403      1272.7387     -7785.9974     -11.268354    
    295000   300.41354     -11736.868      1237.3754     -7813.0651      27.921903    
    300000   296.90684     -11745.319      1276.3701     -7813.8801     -11.904144    
    305000   291.73099     -11738.408      1272.6496     -7856.9743      2.9996587    
    310000   298.72398     -11766.481      1309.2019     -7785.9609      21.636593    
    315000   297.19685     -11783.97       1244.3792     -7881.9286     -10.637707    
    320000   305.78461     -11694.08       1274.6156     -7685.0071     -8.4389552    
    325000   300.22497     -11735.442      1265.7382     -7784.9634     -22.406556    
    330000   300.89604     -11840.15       1276.7172     -7872.6907     -8.7194602    
    335000   304.57003     -11789.468      1294.7838     -7771.0881     -11.030258    
    340000   302.86667     -11790.099      1305.2573     -7776.4781     -5.7942427    
    345000   303.97592     -11789.36       1269.4287     -7801.6481     -31.508942    
    350000   298.72975     -11842.847      1270.3123     -7901.1651     -18.332815    
    355000   307.81139     -11769.122      1278.6064     -7737.9337      9.121052     
    360000   305.51458     -11832.891      1279.322      -7821.5264     -1.6952462    
    365000   300.567       -11772.364      1287.9432     -7796.6217      7.8450523    
    370000   308.40517     -11726.422      1292.6333     -7675.8975     -14.223173    
    375000   301.77359     -11816.5        1279.5015     -7838.4097     -24.345181    
    380000   299.85595     -11781.166      1307.2769     -7792.4482      4.1746008    
    385000   303.24877     -11795.126      1323.8546     -7759.4908      7.1527587    
    390000   293.51208     -11802.126      1248.7496     -7928.665      -7.8460714    
    395000   299.39786     -11754.795      1240.4768     -7836.9736      1.8143773    
    400000   301.83735     -11821.158      1240.1895     -7881.8093      6.6702064    
    405000   300.68224     -11871.311      1285.6451     -7896.8357     -3.1378913    
    410000   296.54751     -11745.18       1235.6585     -7857.6657     -39.225465    
    415000   299.07295     -11872.166      1271.0654     -7926.6614     -24.005044    
    420000   301.81052     -11783.803      1299.0965     -7785.7867     -27.61819     
    425000   298.45806     -11751.6        1256.4323     -7826.2274     -24.394223    
    430000   300.82242     -11765.774      1298.6399     -7777.0509      1.0429206    
    435000   297.31721     -11841.947      1264.4149     -7918.7934     -7.422808     
    440000   303.51077     -11798.322      1282.3839     -7801.8146      9.25706      
    445000   300.17009     -11831.159      1212.8426     -7934.0661      5.2248367    
    450000   304.38922     -11758.653      1247.8094     -7788.864      -0.45911812   
    455000   306.989       -11916.868      1289.7523     -7881.8878      6.3696794    
    460000   300.75443     -11848.497      1228.8545     -7930.1672     -28.577459    
    465000   302.21587     -11822.732      1285.1137     -7835.0736     -1.1682378    
    470000   296.01916     -11768.252      1248.6836     -7872.4373     -27.077464    
    475000   296.69276     -11796.7        1273.9246     -7869.6206     -7.4881062    
    480000   293.64118     -11754.379      1225.838      -7902.6755      17.480861    
    485000   302.15986     -11833.397      1245.2131     -7886.1404      19.436049    
    490000   290.62754     -11723.124      1287.1438     -7837.0634     -30.622069    
    495000   302.55594     -11875.521      1266.8504     -7903.0853      4.78969      
    500000   298.54265     -11850.554      1229.565      -7951.2922      10.143837    
    505000   292.48702     -11858.275      1281.4649     -7961.2649      7.158524     
    510000   300.41061     -11837.673      1252.3545     -7898.9176     -4.7365771    
    515000   303.62745     -11860.988      1271.6345     -7874.1864      0.098264748  
    520000   298.20312     -11840.324      1281.5753     -7892.088      -9.453337     
    525000   301.85972     -11888.036      1250.0789     -7938.5981     -0.4408421    
    530000   296.44279     -11916.47       1247.6843     -8017.8666      4.2613251    
    535000   301.52221     -11855.29       1268.0179     -7890.9309     -6.7691588    
    540000   297.37099     -11894.388      1271.307      -7963.8613      16.660661    
    545000   297.43329     -11747.677      1286.5024     -7801.3982     -0.54476363   
    550000   308.8435      -11787.146      1262.3394     -7762.9952     -7.8983757    
    555000   300.10357     -11888.824      1280.7817     -7924.387       2.6223725    
    560000   306.02134     -11791.972      1234.679      -7820.7188     -4.810088     
    565000   286.22193     -11809.854      1277.2858     -7973.049      -8.3849339    
    570000   296.17423     -11871.667      1286.7191     -7936.4303      14.473038    
    575000   296.34744     -11925.362      1260.2612     -8015.0347      12.296899    
    580000   299.52364     -11854.393      1291.5427     -7884.3815      0.88420931   
    585000   303.60655     -11826.145      1294.7151     -7816.4493     -12.517568    
    590000   305.78301     -11777.229      1230.731      -7812.0542      8.273576     
    595000   298.262       -11844.602      1236.8275     -7940.5869     -35.36759     
    600000   296.99962     -11777.663      1287.0032     -7834.7617      18.218891    
    605000   297.72326     -11809.154      1258.523      -7888.2617      13.808884    
    610000   301.6875      -11904.232      1316.8576     -7889.5553     -4.0950406    
    615000   297.18611     -11836.5        1255.4367     -7923.4976     -14.805311    
    620000   300.85672     -11866.519      1251.4669     -7924.6618      14.867765    
    625000   301.12906     -11928.964      1284.1172     -7952.0214      1.8622815    
    630000   297.44287     -11789.76       1280.6744     -7849.2232     -35.407137    
    635000   307.68631     -11858.565      1245.7965     -7861.3047     -7.6624139    
    640000   301.14456     -11800.151      1230.1297     -7877.0572      20.196587    
    645000   307.12144     -11926.67       1258.8149     -7921.4435      16.516031    
    650000   301.91587     -11824.318      1200.6282     -7923.8286     -31.392327    
    655000   302.1105      -11805.061      1267.6197     -7835.8396     -31.135633    
    660000   303.2593      -11851.848      1254.113      -7885.86        12.805086    
    665000   298.506       -11847.079      1278.0919     -7899.6179      5.7412394    
    670000   303.19742     -11954.654      1237.1747     -8006.1572      10.999765    
    675000   297.45478     -11921.071      1214.6386     -8046.464      -5.4621129    
    680000   301.74545     -11972.416      1286.4151     -7987.6635      2.9195864    
    685000   298.10854     -11944.745      1226.6141     -8052.3161     -5.8493883    
    690000   297.07761     -12011.699      1246.9375     -8108.1655     -37.77433     
    695000   298.16999     -12058.584      1242.636      -8149.5835     -5.2993164    
    700000   301.34788     -12131.259      1251.7648     -8184.7116     -18.801618    
    705000   303.08737     -12067.569      1262.9532     -8094.2784      1.1281762    
    710000   296.1924      -12205.597      1246.9081     -8310.0085      9.6784965    
    715000   296.76329     -12155.926      1256.4849     -8245.6562     -17.670837    
    720000   306.78341     -12034.687      1241.2161     -8050.0814     -12.062265    
    725000   304.24156     -12210.87       1258.4401     -8231.7714      0.84002101   
    730000   299.40987     -12016.469      1241.2808     -8097.7363     -14.807353    
    735000   299.34737     -12079.921      1251.9283     -8151.1002     -17.165144    
    740000   302.48985     -12145.107      1266.5298     -8173.5832      29.572274    
    745000   297.54601     -12191.894      1276.308      -8254.8021     -6.9959989    
    750000   306.97125     -12125.683      1212.4783     -8168.1353      1.4645855    
    755000   300.03804     -12089.38       1295.6705     -8110.64        18.122361    
    760000   304.78784     -12103.087      1227.1665     -8150.3765      28.65555     
    765000   296.57798     -12163.824      1295.5675     -8216.129       26.423405    
    770000   294.33859     -12134.12       1253.7746     -8248.2437      14.250576    
    775000   297.27291     -12104.6        1271.1336     -8175.124      -8.8448823    
    780000   304.57966     -12043.165      1296.9294     -8022.5538      3.537247     
    785000   304.05391     -12129.264      1195.3544     -8214.9283     -10.800513    
    790000   300.35518     -12153.516      1274.3057     -8193.3051      35.000782    
    795000   301.72603     -12239.219      1230.9482     -8310.1072     -9.6135676    
    800000   301.73964     -12230.494      1190.9304     -8341.2783      27.829574    
    805000   298.40726     -12208.515      1214.7528     -8325.2761      13.963962    
    810000   303.67497     -12215.954      1228.4623     -8271.8992     -2.8705212    
    815000   299.44046     -12153.092      1279.2126     -8196.1539      4.5896436    
    820000   300.76232     -12148.635      1283.1716     -8175.9174     -15.056347    
    825000   297.63884     -12194.03       1261.5325     -8270.8826     -7.1927422    
    830000   295.06045     -12152.665      1234.7715     -8279.336      -29.848489    
    835000   295.99591     -12249.599      1239.8881     -8362.7877     -5.9713132    
    840000   296.34064     -12264.935      1223.7159     -8391.2137     -13.941608    
    845000   301.31847     -12271.323      1247.6269     -8329.1764     -16.69815     
    850000   299.3131      -12355.865      1293.1897     -8386.0885      6.7324236    
    855000   288.21722     -12400.792      1237.5793     -8585.8503     -2.3755538    
    860000   299.90892     -12366.984      1196.3705     -8488.6984      27.312015    
    865000   297.48577     -12313.443      1181.9464     -8471.251      -4.8850672    
    870000   303.17877     -12372.662      1239.8249     -8421.6823     -7.2492253    
    875000   297.6403      -12448.877      1212.5654     -8574.684      -20.826477    
    880000   296.80821     -12331.546      1271.8689     -8405.4904     -6.550509     
    885000   297.0127      -12388.606      1216.5597     -8516.0314     -33.670667    
    890000   297.51487     -12423.795      1227.9201     -8535.3687     -23.413013    
    895000   300.43283     -12368.55       1239.5632     -8442.3876      7.0897061    
    900000   298.0356      -12448.277      1297.5465     -8485.5674     -5.6187257    
    905000   295.01428     -12390.466      1253.4035     -8498.918      -29.056235    
    910000   304.81458     -12427.237      1299.4347     -8402.0188     -27.884413    
    915000   301.24295     -12517.236      1262.9124     -8560.4799     -17.963046    
    920000   303.44904     -12358.31       1211.0915     -8433.6464     -11.67387     
    925000   303.40995     -12405.903      1244.0215     -8448.6589     -7.6465093    
    930000   301.42559     -12421.285      1195.4621     -8530.3457      4.2122194    
    935000   308.78788     -12410.521      1206.9813     -8442.2255      3.9638872    
    940000   306.88882     -12422.133      1219.3835     -8458.4178      26.282789    
    945000   301.46769     -12416.572      1180.2279     -8540.4902      4.5203784    
    950000   291.05758     -12407.259      1277.9095     -8526.5879     -1.7121801    
    955000   302.07655     -12380.061      1244.5978     -8434.1647     -34.849803    
    960000   308.30433     -12427.193      1265.7722     -8404.4306     -3.5340431    
    965000   295.27532     -12457.177      1233.3961     -8583.3017      2.3711733    
    970000   299.39741     -12562.871      1279.4662     -8606.0643     -12.764701    
    975000   296.89656     -12434.225      1191          -8588.2482     -11.109551    
    980000   300.63504     -12441.569      1246.0864     -8507.0748     -19.429732    
    985000   301.79528     -12445.982      1188.3403     -8558.8581     -19.139919    
    990000   294.97518     -12423.825      1245.2913     -8540.7387      2.6239551    
    995000   295.80162     -12430.97       1195.8947     -8589.8901     -19.497796    
   1000000   288.83714     -12446.327      1239.2155     -8624.2054     -5.323459     
   1005000   296.0541      -12464.97       1213.8881     -8603.6389      0.35756163   
   1010000   298.58015     -12364.391      1171.2802     -8523.0783     -13.480664    
   1015000   300.71142     -12500.806      1192.1387     -8619.5768     -16.984444    
   1020000   300.59692     -12423.364      1217.1077     -8518.1893     -12.154305    
   1025000   306.37743     -12408.951      1219.436      -8449.7564      12.908356    
   1030000   299.99564     -12495.248      1225.2987     -8587.259      -1.8316634    
   1035000   304.84281     -12454.156      1231.4726     -8496.6474      2.6232478    
   1040000   296.68434     -12474.081      1192.272      -8628.7296      5.7742132    
   1045000   311.18895     -12541.199      1223.4369     -8534.9768      20.518329    
   1050000   302.94422     -12513.598      1259.3251     -8545.2158      7.4045964    
   1055000   297.97169     -12391.243      1250.0032     -8476.6483      15.799032    
   1060000   302.82457     -12480.26       1285.9471     -8486.3255     -6.1600377    
   1065000   302.11881     -12487.994      1229.3124     -8557.0053      18.326297    
   1070000   301.26541     -12477.565      1255.9311     -8527.5893      10.569864    
   1075000   306.04503     -12417.257      1230.9264     -8449.544      -8.2975467    
   1080000   301.59974     -12435.858      1304.2003     -8434.6232     -7.1970264    
   1085000   306.19509     -12461.317      1275.3509     -8447.8377      17.723261    
   1090000   295.73801     -12361.843      1287.7369     -8429.4901     -20.266875    
   1095000   298.58072     -12367.589      1264.4839     -8433.0678     -3.9335101    
   1100000   294.95022     -12436.209      1264.6905     -8533.9467      5.7152917    
   1105000   302.11334     -12407.868      1238.7448     -8467.4957      16.231327    
   1110000   297.65411     -12458.533      1211.5299     -8585.2518     -7.6967792    
   1115000   298.06324     -12467.111      1237.1483     -8564.5529     -5.5619956    
   1120000   307.12881     -12397.862      1188.2473     -8463.1367      41.448093    
   1125000   304.68063     -12378.448      1235.4579     -8418.4053      40.746637    
   1130000   294.49581     -12424.24       1237.9066     -8552.8252     -15.612618    
   1135000   295.34538     -12405.527      1296.586      -8467.836      -11.546497    
   1140000   306.01836     -12490.961      1219.8966     -8534.5163      30.638471    
   1145000   299.41499     -12371.188      1253.2785     -8440.4119     -2.6762281    
   1150000   297.22476     -12470.837      1213.065      -8599.8605      2.8119996    
   1155000   299.29101     -12444.253      1242.8791     -8524.9852     -3.4577627    
   1160000   292.76744     -12412.2        1211.7833     -8582.3648      11.280806    
   1165000   289.63745     -12544.751      1228.8574     -8725.8314     -17.570603    
   1170000   300.81147     -12439.279      1241.2905     -8508.0032     -6.2467543    
   1175000   290.9086      -12458.84       1226.0799     -8631.3301     -2.3179691    
   1180000   301.62364     -12495.525      1231.7844     -8566.4921     -2.6227645    
   1185000   296.28067     -12481.668      1279.3198     -8552.8791      6.1855378    
   1190000   299.35102     -12500.931      1271.7396     -8552.2653      19.023757    
   1195000   294.82773     -12426.557      1231.1684     -8558.9119     -17.868199    
   1200000   294.91077     -12403.784      1267.9823     -8498.5829     -3.6748493    
   1205000   296.69739     -12360.56       1215.6494     -8491.7151      12.939477    
   1210000   293.38117     -12420.339      1183.6965     -8613.1016     -7.4795006    
   1215000   307.78606     -12432.735      1252.34       -8428.0395     -15.885898    
   1220000   307.94846     -12517.196      1224.1412     -8539.2471     -32.124166    
   1225000   297.26599     -12375.906      1238.7301     -8478.8955     -28.420217    
   1230000   304.7887      -12452.19       1259.8597     -8466.7791     -7.307661     
   1235000   304.81716     -12433.837      1236.7086     -8471.3226      3.1311841    
   1240000   302.67096     -12465.136      1235.06       -8523.4625      18.760355    
   1245000   299.67571     -12404.359      1267.6158     -8456.9138      10.287699    
   1250000   298.44085     -12437.777      1249.4748     -8519.516      -16.776989    
   1255000   299.98554     -12386.655      1245.0519     -8459.0033      6.7801915    
   1260000   298.18046     -12447.353      1200.0568     -8580.838       9.1346196    
   1265000   308.31287     -12456.249      1247.2284     -8451.9547      26.153999    
   1270000   301.55193     -12406.422      1244.116      -8465.6991     -7.7959191    
   1275000   296.25408     -12434.843      1253.9385     -8531.6734     -25.521982    
   1280000   289.91146     -12398.701      1208.6835     -8597.5046      9.2625306    
   1285000   300.47419     -12382.886      1247.0557     -8448.8611      12.235172    
   1290000   303.92467     -12370.528      1248.0063     -8404.6963     -19.516943    
   1295000   303.17172     -12365.077      1236.633      -8417.3524      1.0700368    
   1300000   300.1429      -12457.724      1212.8671     -8560.8503     -3.3524971    
   1305000   300.02575     -12401.735      1206.5118     -8512.2634     -1.3975684    
   1310000   307.61554     -12389.921      1205.6745     -8433.4162      16.836664    
   1315000   306.99409     -12419.138      1257.0897     -8416.7755     -21.444266    
   1320000   297.25874     -12374.224      1213.5527     -8502.4557      20.714918    
   1325000   301.78145     -12373.095      1182.2453     -8492.1899     -11.447966    
   1330000   307.67243     -12460.751      1276.679      -8432.7326      34.731193    
   1335000   304.85469     -12403.39       1230.1229     -8447.1249      1.9247941    
   1340000   300.24146     -12304.716      1241.1604     -8378.6669      10.408559    
   1345000   299.56779     -12382.659      1201.4883     -8502.3066      9.758855     
   1350000   300.50983     -12327.827      1234.7602     -8405.7787      14.353473    
   1355000   294.53185     -12357.256      1268.6098     -8454.8158     -10.482294    
   1360000   300.12852     -12412.088      1246.2195     -8481.9901     -22.978293    
   1365000   293.43134     -12450.314      1216.237      -8610.0878     -6.8449919    
   1370000   307.56228     -12524.396      1281.8086     -8492.2337     -9.6698421    
   1375000   298.3228      -12490.419      1240.8396     -8581.8482     -12.20659     
   1380000   299.98005     -12446.629      1187.4913     -8576.587       2.9249309    
   1385000   308.75032     -12426.906      1221.3292     -8444.5982     -3.089122     
   1390000   296.74376     -12486.489      1220.5319     -8612.347      -2.4701538    
   1395000   298.29661     -12440.625      1250.5123     -8522.6163      27.231606    
   1400000   295.46039     -12459.94       1251.6779     -8566.1284     -28.777381    
   1405000   303.86308     -12466.117      1252.8872     -8495.9556     -7.4215028    
   1410000   306.704       -12412.676      1230.4049     -8439.592      -13.249335    
   1415000   306.54852     -12416.928      1231.3056     -8444.3335     -11.936519    
   1420000   303.89228     -12385.565      1226.7183     -8441.3115     -4.1321564    
   1425000   295.42657     -12466.852      1239.8976     -8585.1231     -10.860619    
   1430000   300.60975     -12451.917      1224.4434     -8539.2924      3.0389612    
   1435000   302.04907     -12310.423      1236.7185     -8372.652      -3.5367003    
   1440000   302.24317     -12456.467      1222.8568     -8530.8215     -22.652931    
   1445000   297.92849     -12422.122      1217.09       -8540.8267     -8.8981791    
   1450000   295.96067     -12483.895      1224.146      -8613.1409     -8.8417128    
   1455000   296.33823     -12463.346      1261.6834     -8551.6782      18.615554    
   1460000   302.94295     -12467.395      1265.4843     -8492.8646      10.856037    
   1465000   300.75603     -12457.866      1204.3337     -8564.0429     -16.397522    
   1470000   294.56078     -12484.436      1260.595      -8589.7522     -32.545995    
   1475000   297.21337     -12429.54       1230.6634     -8541.0666     -8.9151201    
   1480000   291.94128     -12388.351      1229.9332     -8547.7538     -10.298071    
   1485000   301.44794     -12440.689      1281.8864     -8463.1259     -5.9749646    
   1490000   305.25981     -12301.671      1184.048      -8387.8584     -6.8245976    
   1495000   304.73667     -12426.403      1308.5322     -8392.7846      2.5061623    
   1500000   303.78502     -12415.118      1205.4616     -8493.0803      12.785256    
   1505000   296.48957     -12433.752      1206.033      -8576.382      -1.1405452    
   1510000   295.24632     -12455.194      1255.7861     -8559.188       4.0725982    
   1515000   300.2641      -12463.848      1250.1446     -8528.613      -11.876886    
   1520000   298.99743     -12392.642      1219.534      -8499.3439      28.672757    
   1525000   296.42119     -12424.385      1190.4451     -8583.2144     -19.332541    
   1530000   304.93267     -12489.149      1263.8177     -8498.4923     -23.015147    
   1535000   299.45201     -12482.368      1251.547      -8552.9927      0.26608302   
   1540000   299.64474     -12419.554      1247.7967     -8492.2052     -17.38881     
   1545000   299.68007     -12428.553      1234.499      -8514.1855     -1.7326267    
   1550000   300.78252     -12426.946      1231.0071     -8506.2127      4.9996907    
   1555000   300.23573     -12347.421      1201.4635     -8461.1201      3.5586636    
   1560000   303.44202     -12495.077      1217.9749     -8563.5926      9.374171     
   1565000   293.67162     -12461.974      1255.5009     -8580.3351     -11.135405    
   1570000   305.37968     -12483.023      1219.2048     -8532.9815      6.2167748    
   1575000   305.20346     -12483.128      1219.1311     -8534.7358     -0.852545     
   1580000   309.23498     -12377.937      1204.1337     -8408.4907     -4.9114248    
   1585000   304.90192     -12394.224      1271.6417     -8396.0181     -4.1289496    
   1590000   298.62133     -12480.964      1241.099      -8569.4643     -24.024663    
   1595000   296.19889     -12440.442      1270.7029     -8521.0013      3.8764442    
   1600000   298.6112      -12491.886      1250.3456     -8571.2306     -3.3069206    
   1605000   308.04259     -12438.395      1227.1823     -8456.5631     -5.952599     
   1610000   303.9215      -12404.789      1253.5085     -8433.4834      20.275703    
   1615000   305.81989     -12446.464      1268.8948     -8442.796      -15.656421    
   1620000   302.30598     -12460.222      1280.5455     -8476.3264     -10.648476    
   1625000   301.37305     -12467.968      1206.813      -8566.1479     -36.547456    
   1630000   306.40849     -12437.417      1229.0062     -8468.3742      16.359656    
   1635000   305.24102     -12468.412      1263.6607     -8475.1546     -20.767837    
   1640000   298.33469     -12368.845      1289.4891     -8411.5192     -4.0983915    
   1645000   303.55125     -12393.722      1207.2999     -8471.9363      10.863989    
   1650000   297.57984     -12440.777      1166.0138     -8613.6767      8.7919992    
   1655000   294.70612     -12406.567      1197.2015     -8573.9766      18.813118    
   1660000   305.14765     -12389.105      1194.3671     -8465.9763      15.642433    
   1665000   294.63525     -12469.217      1258.4821     -8575.9793     -0.59861285   
   1670000   301.17513     -12317.016      1228.2315     -8395.5474      9.2888826    
   1675000   293.82126     -12388.743      1227.6639     -8533.603       22.99326     
   1680000   302.51479     -12374.131      1166.7264     -8502.1873     -15.521939    
   1685000   299.21283     -12434.982      1278.2307     -8481.0611      5.7810654    
   1690000   302.54674     -12410.212      1191.5028     -8513.2065     -21.9935      
   1695000   291.21224     -12476.954      1211.8444     -8660.9644     -34.985721    
   1700000   294.97563     -12475.018      1189.5934     -8647.6258     -18.659336    
   1705000   305.61675     -12472.111      1236.6583     -8502.4963     -11.111749    
   1710000   295.93855     -12354.981      1227.0189     -8481.5525      9.8105038    
   1715000   301.95313     -12331.594      1246.3373     -8385.0622     -11.063011    
   1720000   297.07667     -12446.395      1233.5673     -8556.2405      4.9691024    
   1725000   305.03587     -12535.086      1209.2331     -8598.0912      23.420894    
   1730000   298.93484     -12358.701      1257.6173     -8427.88        11.017426    
   1735000   291.95748     -12406.976      1209.7737     -8586.393       3.165459     
   1740000   299.66569     -12477.11       1235.0657     -8562.3052     -6.0572606    
   1745000   302.74496     -12478.892      1227.4386     -8544.1775      19.672154    
   1750000   293.12987     -12435.599      1307.1683     -8507.137       4.7817121    
   1755000   298.16323     -12466.216      1242.9373     -8556.9752      4.6023752    
   1760000   297.65071     -12424.923      1248.0059     -8515.1968     -14.583016    
   1765000   302.15944     -12515.934      1237.9793     -8575.9147      18.26807     
   1770000   296.716       -12455.894      1248.2576     -8554.2742     -2.0226003    
   1775000   300.07032     -12483.034      1232.4498     -8567.2263      16.266949    
   1780000   300.18602     -12418.787      1179.899      -8554.4951      5.3659561    
   1785000   300.12738     -12345.784      1227.6878     -8434.2283     -6.8258673    
   1790000   299.15713     -12310.413      1238.3058     -8396.9158     -0.21340119   
   1795000   306.65156     -12471.923      1201.6029     -8528.1102     -21.300112    
   1800000   298.34712     -12445.4        1255.002      -8522.4495     -10.052978    
   1805000   301.69319     -12401.394      1264.9604     -8438.5636      6.1470537    
   1810000   298.24217     -12433.762      1254.6214     -8512.1307     -6.6797478    
   1815000   298.98668     -12479.71       1278.5578     -8527.4844      4.7325776    
   1820000   299.58082     -12500.562      1224.8857     -8596.6957     -2.1096345    
   1825000   298.07027     -12396.647      1225.7693     -8505.4055     -0.8211852    
   1830000   296.74598     -12421.962      1264.5302     -8503.8021      4.7024705    
   1835000   307.28133     -12429.442      1207.042      -8474.5583      12.933913    
   1840000   301.83295     -12489.174      1214.9442     -8575.1096      14.48526     
   1845000   299.73725     -12490.475      1281.1509     -8528.9448     -17.606819    
   1850000   301.00328     -12373.856      1214.1694     -8467.9853     -12.457778    
   1855000   303.91442     -12473.156      1196.5735     -8558.8493     -26.114444    
   1860000   301.29162     -12406.064      1203.9914     -8507.793      -19.955119    
   1865000   298.47041     -12432.961      1233.2749     -8530.6349     -13.487788    
   1870000   299.14856     -12435.351      1186.385      -8573.8511      0.31998149   
   1875000   290.18364     -12437.457      1247.4378     -8595.072      -5.8989374    
   1880000   298.47565     -12484.067      1269.051      -8545.918      -4.3770025    
   1885000   300.29594     -12355.41       1222.0068     -8448.0282     -1.9842314    
   1890000   298.18573     -12385.854      1278.7154     -8440.6339     -7.8513324    
   1895000   303.74477     -12347.495      1248.2308     -8383.0478     -7.3024928    
   1900000   294.60106     -12409.368      1206.3279     -8568.5904     -3.0701929    
   1905000   293.14408     -12393.79       1240.744      -8531.6256     -28.234816    
   1910000   296.50606     -12474.544      1248.8236     -8574.2358      20.874634    
   1915000   300.91611     -12450.683      1300.957      -8458.8043      10.224294    
   1920000   304.82288     -12400.478      1233.7885     -8440.8322     -6.356949     
   1925000   310.25824     -12457.286      1212.1816     -8470.642       8.0678457    
   1930000   293.411       -12502.637      1213.3994     -8665.43       -12.628777    
   1935000   302.30688     -12442.118      1266.0222     -8472.7375     -18.568334    
   1940000   301.96847     -12353.703      1216.6596     -8436.7115     -6.4592399    
   1945000   301.10563     -12462.223      1247.8696     -8521.7378     -16.856955    
   1950000   292.81787     -12398.088      1237.4912     -8542.0939      6.3088341    
   1955000   298.31861     -12449.738      1241.6652     -8540.3792     -37.373463    
   1960000   294.72818     -12458.027      1219.2434     -8603.197       1.4815737    
   1965000   299.23896     -12359.137      1218.387      -8464.827      -13.822997    
   1970000   304.34324     -12557.941      1197.7012     -8638.6716      2.9710347    
   1975000   299.03615     -12547.754      1262.471      -8611.173      -3.9330805    
   1980000   294.57775     -12399.125      1261.5599     -8503.3239     -31.4768      
   1985000   298.74487     -12466.209      1244.5793     -8550.1244     -21.415635    
   1990000   297.29623     -12467.65       1223.0012     -8586.0984     -5.2692554    
   1995000   302.3112      -12419.441      1210.2272     -8505.8172     -18.18501     
   2000000   303.20998     -12483.882      1262.6557     -8509.7917      9.0990562    
   2005000   301.89617     -12446.489      1221.8029     -8525.001       18.01261     
   2010000   298.53531     -12403.882      1195.091      -8539.1599     -21.516253    
   2015000   291.50738     -12382.721      1226.2591     -8549.6775      4.8594264    
   2020000   294.84306     -12444.954      1203.9901     -8604.3503     -0.14541995   
   2025000   301.50017     -12424.919      1235.7143     -8493.0607      19.848867    
   2030000   299.58754     -12494.548      1225.2911     -8590.2167      16.243506    
   2035000   304.30223     -12448.305      1211.5301     -8515.5736     -12.200388    
   2040000   298.70775     -12504.918      1196.8596     -8636.8848      0.91272914   
   2045000   299.20858     -12527.118      1222.9587     -8628.507       2.0159765    
   2050000   295.82173     -12476.481      1240.0481     -8591.0677      3.1991965    
   2055000   298.2458      -12365.939      1221.8365     -8477.0604     -5.8283225    
   2060000   301.06679     -12484.47       1200.7836     -8591.4176     -16.98546     
   2065000   300.67381     -12406.845      1224.3176     -8493.7734     -17.927101    
   2070000   304.64232     -12428.495      1245.0737     -8459.1783      14.417285    
   2075000   297.67263     -12520.244      1300.7442     -8557.5833     -29.231127    
   2080000   299.21402     -12483.191      1237.633      -8569.8572      1.389112     
   2085000   297.0358      -12402.43       1184.637      -8561.5713     -0.30099999   
   2090000   298.645       -12534.215      1228.5014     -8635.1012     -3.4210006    
   2095000   285.49622     -12392.485      1204.3124     -8635.1429      10.846746    
   2100000   303.52181     -12382.412      1260.6752     -8407.5138      11.221992    
   2105000   295.62569     -12461.924      1280.4097     -8537.9027      5.8313503    
   2110000   305.58585     -12514.859      1206.7012     -8575.4776      8.2721794    
   2115000   296.22042     -12444.843      1250.7482     -8545.1642      2.341963     
   2120000   307.72596     -12391.338      1223.8884     -8415.6317      4.3320275    
   2125000   300.59585     -12400.581      1199.073      -8513.4507      6.5658519    
   2130000   308.04487     -12387.976      1224.5386     -8408.7674     -2.3492753    
   2135000   288.91593     -12396.899      1226.9765     -8586.3122      8.3371959    
   2140000   298.73526     -12514.56       1234.6835     -8608.4573      15.980796    
   2145000   299.7566      -12427.372      1260.2815     -8486.5383     -5.7585769    
   2150000   301.15582     -12386.447      1197.8284     -8495.554      -22.893064    
   2155000   300.85908     -12394.272      1213.6915     -8490.169       21.560542    
   2160000   298.15619     -12471.322      1226.8601     -8578.221      -9.6958366    
   2165000   305.95682     -12470.405      1242.5669     -8491.8406      5.0235498    
   2170000   298.00352     -12547.139      1292.8921     -8589.3717     -3.2158478    
   2175000   301.92394     -12542.096      1231.9075     -8610.2544      2.5835052    
   2180000   293.71074     -12404.874      1209.2448     -8569.1414      25.755797    
   2185000   298.63374     -12466.172      1227.0144     -8568.6463     -0.89111939   
   2190000   300.89513     -12443.854      1267.208      -8485.912      -20.131226    
   2195000   298.24563     -12465.123      1174.9696     -8623.1124      19.676731    
   2200000   298.63068     -12412.957      1241.9951     -8500.4774     -14.925245    
   2205000   294.41324     -12415.51       1271.6885     -8511.0516     -13.069559    
   2210000   294.09577     -12436.22       1230.779      -8575.5105      2.3198683    
   2215000   305.81649     -12407.989      1245.5047     -8427.7421      26.182954    
   2220000   307.4347      -12511.211      1244.3941     -8517.6036     -15.056646    
   2225000   300.92005     -12481.079      1202.0744     -8588.0478     -3.8206981    
   2230000   302.14579     -12446.918      1232.387      -8512.6137     -9.7641468    
   2235000   299.38462     -12376.375      1236.5631     -8462.586       16.076739    
   2240000   304.96495     -12380.342      1231.4246     -8421.7895     -25.644268    
   2245000   307.28367     -12413.858      1217.9406     -8448.0545      13.952024    
   2250000   296.28258     -12421.507      1183.0429     -8588.978       26.977931    
   2255000   306.46144     -12587.215      1246.8485     -8599.8568      9.3254424    
   2260000   297.15401     -12473.27       1226.6801     -8589.3109     -25.798984    
   2265000   292.99751     -12460.153      1257.3387     -8582.7044      6.8764811    
   2270000   303.58188     -12490.832      1213.2724     -8562.7994     -19.229731    
   2275000   305.81062     -12457.33       1246.3544     -8476.286      -9.242262     
   2280000   305.38114     -12436.075      1209.1467     -8496.079      -24.613838    
   2285000   301.07855     -12409.021      1261.0914     -8455.5555      2.4801745    
   2290000   302.69475     -12437.219      1227.2631     -8503.1293      6.2070291    
   2295000   302.84765     -12367.202      1203.1912     -8455.8164      20.547843    
   2300000   302.18542     -12479.539      1230.119      -8547.1478      26.727926    
   2305000   290.94315     -12462.661      1224.6962     -8636.2258     -35.277736    
   2310000   296.5146      -12575.406      1223.3178     -8700.5275      0.67494533   
   2315000   299.26953     -12494.85       1237.1522     -8581.5006     -1.2215775    
   2320000   292.00915     -12440.664      1237.7731     -8591.6196     -15.306217    
   2325000   298.54879     -12399.545      1228.9754     -8500.8181      10.332476    
   2330000   303.19694     -12486.668      1255.7831     -8519.5671      1.3324406    
   2335000   300.45839     -12413.316      1243.3624     -8483.1258      9.2210188    
   2340000   294.24464     -12539.686      1270.5133     -8637.9108     -12.415136    
   2345000   301.27319     -12454.321      1207.8698     -8552.337       9.8400753    
   2350000   296.49659     -12456.498      1208.2395     -8596.8582     -3.6741042    
   2355000   305.68061     -12459.197      1218.1887     -8507.4813     -0.6342787    
   2360000   300.92627     -12434.805      1217.1679     -8526.6254      6.1358141    
   2365000   294.20142     -12478.129      1250.2765     -8596.9765      21.629125    
   2370000   295.30804     -12408.256      1262.4785     -8505.0065     -5.7304737    
   2375000   299.6796      -12369.098      1217.1643     -8472.0703      4.7946934    
   2380000   299.6263      -12409.016      1234.6499     -8494.9784     -34.20869     
   2385000   300.36383     -12429.326      1156.9509     -8586.3928     -28.692293    
   2390000   299.32543     -12424.037      1260.6525     -8486.6882      5.7286806    
   2395000   297.38786     -12476.393      1241.3382     -8575.6846      14.78338     
   2400000   297.72291     -12485.293      1255.2561     -8567.67       -12.687403    
   2405000   294.50874     -12503.662      1206.3669     -8663.6717      9.1521403    
   2410000   295.62553     -12459.945      1190.6335     -8625.7006      20.739392    
   2415000   311.4589      -12447.156      1211.673      -8450.2837     -2.1982742    
   2420000   297.4544      -12415.662      1247.4601     -8508.2362     -12.178836    
   2425000   302.25069     -12433.548      1186.4965     -8544.1954      28.244845    
   2430000   304.05519     -12464.119      1237.9453     -8507.1811      13.365957    
   2435000   307.14047     -12397.25       1232.0288     -8418.6393     -16.151038    
   2440000   303.46338     -12421.309      1255.2916     -8452.3173      5.0133066    
   2445000   295.65461     -12527.715      1265.2735     -8618.5708      4.4515935    
   2450000   302.80039     -12481.425      1242.6615     -8530.9924     -24.833409    
   2455000   299.83679     -12370.4        1241.407      -8447.7236     -21.280413    
   2460000   305.99842     -12453.751      1222.3843     -8494.9975      6.3150265    
   2465000   302.61472     -12422.299      1250.5204     -8465.6677     -3.9479154    
   2470000   301.82481     -12461.387      1286.4757     -8475.8644      11.412548    
   2475000   294.63409     -12411.576      1174.4536     -8602.3774      2.7939878    
   2480000   300.36672     -12467.701      1206.3387     -8575.3535     -21.154781    
   2485000   293.94913     -12427.95       1196.8894     -8602.4407     -0.20804516   
   2490000   291.92819     -12485.424      1212.3869     -8662.4895      21.899405    
   2495000   300.57743     -12448.139      1240.5812     -8519.6649     -14.626017    
   2500000   293.99678     -12462.023      1201.3207     -8631.6562      20.054448    
   2505000   302.67908     -12434.435      1200.5431     -8527.2053      20.735078    
   2510000   299.67434     -12444.635      1283.1112     -8481.7067     -11.462571    
   2515000   298.85015     -12480.357      1250.5396     -8557.3711      5.8380693    
   2520000   302.43309     -12339.829      1304.3855     -8330.9564      6.8094564    
   2525000   291.66007     -12448.361      1218.4424     -8621.7687      15.05322     
   2530000   293.21337     -12485.945      1201.484      -8662.4213     -28.247575    
   2535000   305.14553     -12325.604      1248.085      -8348.7763     -6.926962     
   2540000   301.43586     -12450.024      1232.1969     -8522.2575      1.4445263    
   2545000   293.51421     -12493.861      1219.4811     -8649.6491     -16.713898    
   2550000   300.97788     -12428.93       1247.1298     -8490.3261     -19.753973    
   2555000   302.98752     -12475.577      1220.9289     -8545.2034     -5.1586453    
   2560000   296.18491     -12390.291      1185.0717     -8556.6069     -29.982399    
   2565000   298.57487     -12458.069      1290.4972     -8497.5866     -2.1483774    
   2570000   303.65188     -12433.586      1196.7261     -8521.4745      0.28922456   
   2575000   301.26322     -12412.761      1223.161      -8495.5751      8.6916905    
   2580000   293.11823     -12405.963      1263.7596     -8521.0145     -5.2949056    
   2585000   307.65573     -12343.403      1246.6129     -8345.5999      9.8945007    
   2590000   297.38539     -12446.745      1265.5255     -8521.8716      12.466925    
   2595000   312.87255     -12454.521      1255.8773     -8400.8025     -14.345848    
   2600000   302.92837     -12392.812      1201.396      -8482.5003      33.978071    
   2605000   299.56436     -12390.457      1199.7        -8511.9233     -3.9559572    
   2610000   298.52584     -12387.709      1208.3964     -8509.7666     -12.426367    
   2615000   300.08483     -12494.59       1210.8933     -8600.2087     -28.608442    
   2620000   296.10543     -12450.21       1257.8645     -8544.4435     -1.5370485    
   2625000   303.26311     -12397.884      1198.618      -8487.3567     -11.434904    
   2630000   302.86532     -12368.502      1219.8582     -8440.2913      7.3378449    
   2635000   298.60471     -12443.518      1230.8373     -8542.4291     -11.049716    
   2640000   304.45488     -12382.703      1208.6815     -8451.4547     -20.55786     
   2645000   296.22758     -12336.463      1223.1607     -8464.3073      2.1028518    
   2650000   297.92234     -12448.137      1212.4356     -8571.5512     -8.3216624    
   2655000   296.08494     -12337.716      1256.9522     -8433.0445     -26.947672    
   2660000   298.0936      -12435.672      1237.5014     -8532.4893     -12.383454    
   2665000   295.26173     -12384.693      1187.4786     -8556.8571      26.718843    
   2670000   296.35046     -12390.842      1244.3013     -8496.4479      21.96417     
   2675000   300.29718     -12459.781      1214.3797     -8560.0143     -3.8416743    
   2680000   307.43171     -12506.399      1236.8231     -8520.389       10.401391    
   2685000   293.55516     -12497.562      1247.0174     -8625.4477      12.5196      
   2690000   298.45103     -12430.069      1199.1582     -8562.0337      18.751637    
   2695000   302.78293     -12431.599      1207.0401     -8516.9436      5.7381588    
   2700000   293.52422     -12571.183      1246.2139     -8700.149      -5.8283836    
   2705000   304.56045     -12519.341      1231.7489     -8564.082       3.9282909    
   2710000   304.0302      -12486.988      1240.6366     -8527.5826      21.603856    
   2715000   296.41843     -12476.272      1257.573      -8567.9978     -1.4262151    
   2720000   298.18066     -12437.364      1249.1427     -8521.7614      1.8634361    
   2725000   301.72179     -12415.927      1217.5016     -8500.299       7.3222663    
   2730000   296.54751     -12493.724      1227.2952     -8614.5733     -3.2281783    
   2735000   298.26428     -12282.852      1251.2396     -8364.405      -4.1593849    
   2740000   301.57738     -12425.863      1235.0992     -8493.9288     -29.287842    
   2745000   298.79415     -12417.39       1226.7721     -8518.6717      2.8791512    
   2750000   302.33863     -12488.86       1240.9287     -8544.289       24.612165    
   2755000   298.95837     -12520.922      1230.9783     -8616.5296     -9.3025934    
   2760000   306.13815     -12497.391      1238.0985     -8521.6737      7.9360591    
   2765000   302.499       -12399.173      1249.8905     -8444.2062      7.9660027    
   2770000   301.62653     -12364.004      1200.0545     -8466.6752     -21.424982    
   2775000   293.45152     -12402.19       1173.0292     -8604.9912      3.1986229    
   2780000   295.73876     -12380.247      1218.775      -8516.8486     -13.364815    
   2785000   301.21378     -12442.623      1263.1772     -8485.8624      31.642131    
   2790000   299.46279     -12374.496      1306.275      -8390.2963      2.4110581    
   2795000   296.4647      -12489.397      1233.8834     -8604.399       5.495421     
   2800000   296.28586     -12420.499      1216.0582     -8554.9255     -2.9591114    
   2805000   294.05342     -12440.633      1218.4477     -8592.6335     -21.547911    
   2810000   298.09763     -12388.343      1166.7418     -8555.8842     -2.3361592    
   2815000   294.32355     -12438.523      1210.8427     -8595.7126     -9.857148     
   2820000   295.5358      -12482.615      1225.0064     -8614.8002     -10.689047    
   2825000   302.38669     -12507.724      1258.7583     -8544.8935      10.979963    
   2830000   299.53295     -12436.17       1254.2015     -8503.4165      10.28082     
   2835000   294.44127     -12450.871      1258.5534     -8559.2971     -2.3137383    
   2840000   294.1191      -12397.42       1253.9454     -8513.3351     -0.16332568   
   2845000   288.55591     -12380.603      1258.6433     -8541.5689     -13.235129    
   2850000   296.18745     -12450.787      1248.5474     -8553.6037     -2.7011648    
   2855000   301.42447     -12360.206      1276.3833     -8388.3555      19.935244    
   2860000   298.44483     -12482.046      1269.6729     -8543.5509     -23.176403    
   2865000   305.01389     -12447.706      1256.4256     -8463.7146     -13.80153     
   2870000   296.97361     -12417.298      1210.3456     -8551.2866     -8.2950163    
   2875000   304.28917     -12453.884      1236.0407     -8496.759      -21.951838    
   2880000   292.54549     -12416.207      1230.5307     -8569.609       4.1418147    
   2885000   296.17494     -12452.213      1202.3267     -8601.3622      11.129443    
   2890000   298.93472     -12450.28       1276.3126     -8500.7646      49.04198     
   2895000   299.20781     -12554.503      1188.7652     -8690.0926     -18.103415    
   2900000   306.76338     -12452.649      1246.253      -8463.1859      20.516999    
   2905000   298.39133     -12545.102      1231.8118     -8644.9469     -24.338952    
   2910000   300.80589     -12440.929      1210.1889     -8540.8042      9.6103002    
   2915000   302.18456     -12446.588      1291.8609     -8452.4629      22.207614    
   2920000   291.42827     -12408.742      1224.7867     -8577.8785     -25.747527    
   2925000   294.99218     -12351.083      1223.1657     -8489.97        4.2657556    
   2930000   302.39492     -12528.703      1225.9649     -8598.5932     -11.069244    
   2935000   311.55991     -12359.578      1226.5523     -8346.923       8.8165234    
   2940000   302.64449     -12315.416      1260.3373     -8348.7019      0.32774958   
   2945000   299.57199     -12336.323      1193.1007     -8464.3203     -26.30395     
   2950000   293.83862     -12379.035      1206.6938     -8544.7099     -51.81321     
   2955000   295.566       -12458.867      1288.3559     -8527.4329      20.566012    
   2960000   303.12986     -12461.503      1223.4962     -8527.2891     -12.191506    
   2965000   296.00689     -12495.66       1221.0947     -8627.5443      0.98852582   
   2970000   298.60351     -12460.687      1258.8487     -8531.5968     -26.697914    
   2975000   296.75757     -12441.202      1197.4428     -8590.0256     -25.923269    
   2980000   302.98959     -12452.944      1213.5353     -8529.9459     -15.177478    
   2985000   305.43724     -12559.967      1235.5839     -8593.0316      11.593757    
   2990000   303.71226     -12519.345      1254.8257     -8548.594      -21.857097    
   2995000   309.19524     -12411.712      1216.3567     -8430.3984      8.5664709    
   3000000   302.30229     -12516.315      1206.4407     -8606.5573     -6.1041129    
   3005000   297.34263     -12381.099      1226.2378     -8495.8952     -3.5035661    
   3010000   306.83542     -12493.333      1206.0163     -8543.4626      6.3625395    
   3015000   298.88312     -12401.396      1238.379      -8490.2754     -32.846112    
   3020000   294.03905     -12472.277      1199.3339     -8643.5192     -0.75690584   
   3025000   296.51991     -12428.316      1269.4078     -8507.2996      21.287715    
   3030000   305.12263     -12358.355      1216.9335     -8412.8839     -6.1603871    
   3035000   305.8191      -12417.97       1246.9905     -8436.2139      0.77305418   
   3040000   304.00305     -12408.477      1261.7392     -8428.2119      9.0450931    
   3045000   295.80124     -12436.581      1194.6888     -8596.7102     -3.1920809    
   3050000   297.94737     -12399.014      1262.9689     -8471.6716     -24.904092    
   3055000   299.04643     -12460.827      1201.3781     -8585.2476      4.4318071    
   3060000   304.71707     -12446.416      1241.0448     -8480.4597     -21.938773    
   3065000   302.1619      -12398.844      1251.1091     -8445.6731     -21.949376    
   3070000   290.79498     -12522.919      1248.8266     -8673.679       4.0003214    
   3075000   303.41111     -12525.511      1233.2743     -8579.0042      24.266525    
   3080000   297.74209     -12486.01       1261.904      -8561.5686      6.3355934    
   3085000   299.99788     -12537.837      1237.9108     -8617.2165      19.802399    
   3090000   304.34818     -12551.186      1221.7898     -8607.7835     -5.305524     
   3095000   297.36315     -12393.36       1213.8244     -8520.3865     -14.957498    
   3100000   304.18516     -12484.669      1202.4992     -8562.0154     -4.1926843    
   3105000   296.10018     -12407.561      1235.3133     -8524.3922     -9.0377276    
   3110000   297.69723     -12453.243      1211.0673     -8580.039      -17.386012    
   3115000   303.69693     -12461.583      1286.5602     -8459.2344     -4.5778913    
   3120000   305.02817     -12351.016      1207.9042     -8415.4189     -15.463749    
   3125000   298.27688     -12511.948      1220.6728     -8623.9552     -17.701078    
   3130000   300.3734      -12438.546      1204.8904     -8547.5878      1.6019249    
   3135000   294.16303     -12425.882      1202.162      -8593.1873      3.2450999    
   3140000   294.64572     -12370.481      1249.8946     -8485.7376      3.696462     
   3145000   312.75146     -12448.614      1248.0338     -8403.8219      45.940151    
   3150000   303.12988     -12428.908      1225.6243     -8492.5663     -9.9879205    
   3155000   304.66473     -12434.232      1208.3528     -8501.4357      5.3594823    
   3160000   290.24392     -12371.437      1247.9425     -8528.009      -5.3155873    
   3165000   299.03013     -12465.979      1169.8143     -8622.1085      5.6339988    
   3170000   296.3295      -12502.725      1214.5934     -8638.2258      0.59611118   
   3175000   300.95687     -12418.207      1186.2111     -8540.71        7.6557545    
   3180000   309.12623     -12562.74       1205.4505     -8592.9494      11.599872    
   3185000   306.75338     -12502.619      1292.3988     -8467.0998      31.894063    
   3190000   301.49568     -12445.001      1194.533      -8554.3636     -4.7190053    
   3195000   297.82421     -12312.781      1224.583      -8424.9262     -23.388317    
   3200000   295.60194     -12450.07       1239.6884     -8566.9821      10.74356     
   3205000   310.05266     -12480.983      1276.3955     -8431.9632      7.2492379    
   3210000   302.3917      -12469.532      1243.9616     -8521.4535     -7.8706539    
   3215000   296.73697     -12464.994      1182.6146     -8628.8297     -15.424025    
   3220000   299.36339     -12436.554      1200.3092     -8559.2084      5.9314643    
   3225000   301.27916     -12475.856      1237.9739     -8543.7141      18.069357    
   3230000   300.19195     -12443.785      1216.3458     -8542.9939      7.4341384    
   3235000   299.9368      -12431.157      1220.5822     -8528.4111      11.989999    
   3240000   296.58007     -12472.584      1163.3096     -8657.1274      8.6403185    
   3245000   299.76176     -12409.372      1247.9679     -8480.8051      4.7117937    
   3250000   299.91844     -12379.532      1205.6956     -8491.8366      14.850694    
   3255000   299.00173     -12371.047      1163.9796     -8533.265      -2.1215542    
   3260000   293.06059     -12388.539      1238.5616     -8529.3038     -20.392077    
   3265000   305.94257     -12452.672      1227.6555     -8489.1465     -25.772257    
   3270000   292.64283     -12479.41       1224.7166     -8637.7551      10.41065     
   3275000   294.64509     -12399.165      1263.0891     -8501.2329     -1.6976578    
   3280000   305.0918      -12411.334      1195.5984     -8487.4737     -15.47619     
   3285000   304.44353     -12431.568      1215.6482     -8493.4552     -4.8690169    
   3290000   307.97515     -12470.294      1201.8828     -8514.3649     -19.379817    
   3295000   300.95595     -12482.744      1192.8003     -8598.6663     -24.039908    
   3300000   292.26464     -12420.607      1262.0187     -8545.0325     -0.93841223   
   3305000   297.0702      -12490.855      1221.1682     -8613.1571      8.1989799    
   3310000   297.62991     -12466.252      1245.3365     -8559.3812      14.987628    
   3315000   295.64941     -12418.287      1266.099      -8508.3639      12.805811    
   3320000   301.12278     -12412.427      1214.4918     -8505.166      -24.477995    
   3325000   299.85887     -12458.027      1220.7672     -8555.7931     -13.311459    
   3330000   294.67598     -12473.436      1239.8196     -8598.4967      22.375554    
   3335000   300.13993     -12465.77       1220.0402     -8561.7492      29.789578    
   3340000   302.26993     -12530.698      1202.9137     -8624.7566      8.429884     
   3345000   297.89626     -12519.663      1253.2765     -8602.4702      21.804993    
   3350000   300.97401     -12383.101      1229.8834     -8461.7781     -23.736368    
   3355000   302.22874     -12457.009      1235.0287     -8519.3209     -3.0723581    
   3360000   299.35036     -12443.597      1254.64       -8512.0375     -6.9294694    
   3365000   295.71075     -12339.924      1218.4052     -8477.1458     -18.511186    
   3370000   297.9696      -12353.351      1217.9723     -8470.8063      16.341646    
   3375000   293.22645     -12482.824      1205.6624     -8655.0042     -0.17101481   
   3380000   298.02975     -12451.864      1229.2719     -8557.4821     -3.585201     
   3385000   302.9956      -12376.85       1261.4049     -8405.9285      14.159404    
   3390000   300.02864     -12441.918      1236.2091     -8522.7239      7.7984802    
   3395000   303.83715     -12472.134      1338.7858     -8416.3059     -15.771908    
   3400000   304.94992     -12361.537      1204.8502     -8429.6933     -11.660116    
   3405000   297.83796     -12442.163      1232.8295     -8545.9382      2.7109205    
   3410000   293.9617      -12557.943      1197.7853     -8731.4259     -13.447907    
   3415000   305.52332     -12486.628      1237.8099     -8516.6972      15.191605    
   3420000   303.81015     -12443.628      1275.0437     -8451.7834     -1.6158571    
   3425000   298.45247     -12484.817      1251.6971     -8564.2296      14.732122    
   3430000   303.09979     -12474.494      1303.8643     -8460.1812      7.0345449    
   3435000   310.74486     -12412.839      1251.5484     -8382.4763     -19.439726    
   3440000   300.21854     -12445.777      1195.2777     -8565.8163     -1.3140289    
   3445000   297.88908     -12422.34       1231.4788     -8527.009      -2.2393821    
   3450000   301.2817      -12456.069      1215.8639     -8546.0148     -15.241303    
   3455000   301.00651     -12496.241      1292.6212     -8511.8902     -1.6991467    
   3460000   299.16929     -12481.737      1216.3804     -8590.0567     -0.8545387    
   3465000   298.98933     -12419.428      1190.7197     -8555.017      -14.711807    
   3470000   292.49053     -12424.175      1237.9847     -8570.614      -13.950209    
   3475000   290.94718     -12424.737      1231.3317     -8591.6306     -33.981066    
   3480000   297.32305     -12450.082      1260.7605     -8530.5305     -13.588937    
   3485000   303.08818     -12570.981      1214.5968     -8646.0394      22.085543    
   3490000   303.40171     -12498.04       1195.1936     -8589.6976      15.633743    
   3495000   298.05531     -12377.351      1219.6423     -8492.3703     -32.733661    
   3500000   298.35191     -12455.064      1210.6498     -8576.4232     -2.7755198    
   3505000   303.42458     -12481.877      1178.8919     -8589.632      -26.434635    
   3510000   304.89826     -12408.678      1241.2305     -8440.9163      8.3419281    
   3515000   306.78498     -12496.407      1280.4221     -8472.5822      21.637615    
   3520000   301.82712     -12395.233      1288.3652     -8407.7995     -15.752147    
   3525000   301.00128     -12419.976      1211.4422     -8516.8507      19.816376    
   3530000   299.44422     -12455.268      1238.059      -8539.4499     -25.956044    
   3535000   293.94094     -12436.398      1260.4224     -8547.4296      1.7209161    
   3540000   292.34843     -12359.649      1254.3245     -8491.0187     -11.998105    
   3545000   292.69886     -12437.149      1249.4548     -8570.2556     -5.33837      
   3550000   304.10588     -12467.198      1253.3126     -8494.4395      31.334429    
   3555000   288.30219     -12437.473      1232.021      -8627.3299     -2.4752817    
   3560000   307.25655     -12366.455      1265.2255     -8353.6093      11.23755     
   3565000   299.71382     -12377.116      1199.4892     -8497.457       10.672198    
   3570000   298.7909      -12475.827      1234.3015     -8569.6089      20.02355     
   3575000   306.91062     -12455.546      1214.2746     -8496.7443     -4.6277792    
   3580000   295.98621     -12452.991      1259.2784     -8546.8765      6.6054221    
   3585000   303.85462     -12392.186      1266.2478     -8408.7396      17.093995    
   3590000   299.37223     -12453.671      1253.4329     -8523.1225      9.3357676    
   3595000   297.57705     -12442.334      1264.5805     -8516.6915     -13.452921    
   3600000   301.71457     -12370.479      1244.0951     -8428.3229     -9.8582084    
   3605000   297.57082     -12420.685      1274.0028     -8485.6758      1.8229098    
   3610000   304.68017     -12414.385      1222.756      -8467.0474      2.3446751    
   3615000   295.24161     -12462.397      1209.3626     -8612.857      -4.6751923    
   3620000   298.61889     -12468.187      1239.185      -8558.6231      1.7669337    
   3625000   303.26562     -12491.101      1239.3478     -8539.8216     -0.090940317  
   3630000   306.63538     -12492.762      1275.412      -8475.2845      21.293747    
   3635000   299.34998     -12557.965      1211.5182     -8669.5305     -5.3307254    
   3640000   303.95336     -12386.321      1191.7877     -8476.4513     -4.5078223    
   3645000   297.23381     -12429.192      1228.9559     -8542.2433     -32.411304    
   3650000   292.29581     -12332.283      1237.0694     -8481.3786     -12.943331    
   3655000   293.00374     -12487.978      1267.1834     -8600.6296     -23.537174    
   3660000   298.01316     -12400.426      1156.1127     -8579.3511      15.793827    
   3665000   299.63576     -12355.458      1268.223      -8407.7632      16.320724    
   3670000   301.73567     -12461.128      1242.7472     -8520.1308      2.5596683    
   3675000   294.56232     -12435.315      1282.3363     -8518.8754     -5.0792299    
   3680000   295.7362      -12368.924      1251.0796     -8473.2438     -3.6058187    
   3685000   303.71168     -12527.759      1269.8602     -8541.9784      8.5101684    
   3690000   305.92419     -12391.031      1203.4196     -8451.9051     -11.840311    
   3695000   299.33467     -12374.609      1257.1293     -8440.7001     -4.3431002    
   3700000   299.4074      -12469.608      1235.74       -8556.4383     -22.160419    
   3705000   296.54946     -12457.242      1202.267      -8603.1026      1.2469669    
   3710000   301.55981     -12434.706      1223.1041     -8514.9246      7.5876733    
   3715000   288.89533     -12464.82       1234.5717     -8646.8217      0.98290255   
   3720000   300.15911     -12508.138      1242.2681     -8581.718      -14.015123    
   3725000   300.50371     -12463.025      1234.1207     -8541.6709     -18.752724    
   3730000   295.23623     -12457.892      1256.222      -8561.5405     -6.6392668    
   3735000   296.13401     -12360.232      1278.4273     -8433.647      -10.324165    
   3740000   304.95013     -12370.937      1202.7112     -8441.2307     -28.125925    
   3745000   302.23348     -12447.071      1201.9637     -8542.4053     -10.156784    
   3750000   297.52007     -12474.193      1219.5276     -8594.1125      15.272167    
   3755000   307.01324     -12428.45       1239.1016     -8443.9041      13.954577    
   3760000   298.92613     -12552.688      1219.066      -8660.4963     -7.8938506    
   3765000   305.7864      -12328.107      1233.0908     -8360.5423      0.22003412   
   3770000   299.08782     -12399.453      1224.399      -8500.4816      32.936189    
   3775000   300.76129     -12416.238      1230.973      -8495.728      -24.472768    
   3780000   306.34326     -12443.783      1256.81       -8447.5202     -9.606266     
   3785000   301.80135     -12458.151      1256.0162     -8503.2978      17.518741    
   3790000   302.91807     -12385.645      1209.0818     -8467.739       8.3867353    
   3795000   308.30557     -12377.769      1248.9319     -8371.8359     -0.72239709   
   3800000   299.87866     -12475.298      1249.2742     -8544.3801     -0.74073474   
   3805000   311.55754     -12461.882      1203.2169     -8472.5832     -1.5000199    
   3810000   296.23738     -12548.965      1250.1254     -8649.7577     -7.8071954    
   3815000   307.71621     -12418.113      1206.993      -8459.3891     -13.295408    
   3820000   293.756       -12424.666      1213.7262     -8584.0472     -19.124283    
   3825000   309.89205     -12383.12       1218.3793     -8393.5531     -5.1449201    
   3830000   308.32102     -12415.704      1156.6219     -8501.9426      4.5284762    
   3835000   296.01889     -12520.961      1206.7019     -8667.1313     -5.1246626    
   3840000   298.76063     -12455.068      1238.4767     -8544.9456     -14.264517    
   3845000   299.59539     -12499.639      1260.8265     -8559.7011      10.185227    
   3850000   295.42764     -12406.036      1152.8939     -8611.3012      11.4102      
   3855000   307.63688     -12446.309      1262.2823     -8433.0055      6.2887687    
   3860000   301.7752      -12487.038      1259.8742     -8528.5601     -13.709575    
   3865000   307.06607     -12390.77       1248.6533     -8396.1999     -7.1073693    
   3870000   299.22849     -12508.872      1239.3943     -8593.6482     -13.894282    
   3875000   298.254       -12449.323      1188.1094     -8594.0982      8.3567306    
   3880000   298.35451     -12425.173      1224.8788     -8532.2796     -11.328281    
   3885000   307.1821      -12436.239      1238.0172     -8451.2668      14.589327    
   3890000   304.1753      -12484.698      1218.574      -8546.0572      1.9037733    
   3895000   304.02102     -12344.459      1212.7945     -8412.9779     -10.62055     
   3900000   299.60265     -12334.687      1255.8888     -8399.6225     -4.9458245    
   3905000   300.4262      -12471.48       1247.2212     -8537.7181     -9.9170515    
   3910000   295.05383     -12371.926      1194.1554     -8539.2725     -10.467478    
   3915000   295.16923     -12445.787      1249.1992     -8557.0576     -7.8810602    
   3920000   298.67596     -12417.998      1186.0464     -8561.0625     -10.930707    
   3925000   306.53085     -12449.524      1229.3593     -8479.0337      12.493775    
   3930000   296.65201     -12437.659      1202.5795     -8582.2899      39.147896    
   3935000   289.91598     -12420.804      1242.1959     -8586.0544      0.14548281   
   3940000   301.95243     -12416.915      1232.3795     -8484.3473      22.153236    
   3945000   295.33894     -12313.131      1209.2854     -8462.7979     -15.171102    
   3950000   301.73557     -12394.826      1209.1089     -8487.4682      6.5705039    
   3955000   308.72746     -12339.127      1240.8281     -8337.525       1.8716289    
   3960000   290.38495     -12322.447      1265.4825     -8460.2172     -17.449038    
   3965000   298.55715     -12336.223      1210.9093     -8455.4874     -14.565291    
   3970000   301.37415     -12362.773      1253.8533     -8413.9021      15.777632    
   3975000   301.57136     -12353.567      1190.0799     -8466.7059     -6.3111081    
   3980000   298.44236     -12476.712      1277.315      -8530.5966      12.157409    
   3985000   299.51848     -12479.137      1200.9101     -8599.8043     -19.994147    
   3990000   302.9642      -12394.757      1264.6989     -8420.8218      5.4271014    
   3995000   298.71027     -12444.025      1245.0988     -8527.7305     -1.4458404    
   4000000   304.54888     -12422.468      1225.1062     -8473.9545      15.605931    
   4005000   299.82415     -12465.157      1262.3008     -8521.6999     -7.4875271    
   4010000   297.52139     -12396.887      1221.3889     -8514.9337      20.620299    
   4015000   311.61321     -12345.419      1219.1162     -8339.7235     -14.185756    
   4020000   294.188       -12424.973      1273.4683     -8520.7487      4.1027411    
   4025000   302.16325     -12380.648      1245.0252     -8433.5489     -8.3844248    
   4030000   294.03146     -12427.098      1270.6434     -8527.0986     -0.66082316   
   4035000   292.08089     -12479.076      1231.9139     -8635.2489     -12.730931    
   4040000   299.02645     -12480.399      1235.6312     -8570.7451      6.4247801    
   4045000   301.00997     -12418.631      1244.2134     -8482.6568      1.2955208    
   4050000   298.93945     -12406.051      1254.9136     -8477.8922      17.318719    
   4055000   296.87506     -12380.648      1179.4784     -8546.3846      14.054667    
   4060000   304.42193     -12412.76       1211.9406     -8478.5474      3.0064673    
   4065000   302.72179     -12420.744      1218.2676     -8495.408      -12.147935    
   4070000   296.31702     -12414.851      1204.465      -8560.5913     -17.16585     
   4075000   303.89077     -12392.05       1226.8683     -8447.6602      0.57048671   
   4080000   302.05034     -12398.459      1213.6802     -8483.7148      10.085667    
   4085000   306.29507     -12465.082      1224.9594     -8501.0999      10.807925    
   4090000   300.78801     -12453.837      1253.0903     -8510.9707     -1.9594105    
   4095000   298.76158     -12429.365      1207.1197     -8550.5908     -14.418623    
   4100000   297.96433     -12428.317      1243.8454     -8519.9466      1.5399276    
   4105000   304.2485      -12354.568      1244.7003     -8389.1465      5.0532381    
   4110000   304.81944     -12412.551      1266.3062     -8420.4179      9.613089     
   4115000   308.97791     -12518.225      1193.4358     -8561.7754     -17.38941     
   4120000   298.87665     -12467.789      1267.9609     -8527.1448      6.866774     
   4125000   304.49389     -12526.949      1204.914      -8599.1196     -4.8860657    
   4130000   296.3234      -12415.911      1227.2296     -8538.83       -12.380323    
   4135000   301.3397      -12543.061      1234.8407     -8613.5115     -20.312724    
   4140000   305.23505     -12473.773      1149.5021     -8594.7281      21.782528    
   4145000   299.61502     -12446.436      1185.0354     -8582.1144      0.71901424   
   4150000   308.35047     -12545.157      1228.1816     -8559.5728      4.921424     
   4155000   298.43226     -12484.833      1233.1657     -8582.9574      9.3176102    
   4160000   292.88812     -12471.803      1239.1126     -8613.5589      14.945985    
   4165000   295.69416     -12429.785      1219.9996     -8565.5611      34.587199    
   4170000   302.09989     -12491.413      1259.4788     -8530.4267      27.518035    
   4175000   297.44726     -12504.014      1176.7163     -8667.3962     -2.4291323    
   4180000   304.75628     -12346.296      1273.0171     -8348.0169     -5.7877575    
   4185000   311.45119     -12460.162      1201.7285     -8473.3033      30.91191     
   4190000   298.46026     -12495.015      1259.9322     -8566.1229     -2.1089031    
   4195000   297.43579     -12478.03       1222.2407     -8595.9902     -24.83604     
   4200000   300.31411     -12427.957      1180.8198     -8561.5991      0.075723427  
   4205000   301.26209     -12487.229      1199.2898     -8593.9236     -18.418418    
   4210000   304.08147     -12434.898      1245.1692     -8470.502      -6.7484229    
   4215000   301.69105     -12425.397      1238.7009     -8488.8449      20.43442     
   4220000   294.78372     -12501.417      1222.9363     -8642.3983      13.962639    
   4225000   294.69469     -12388.03       1186.2103     -8566.5329      23.930084    
   4230000   298.97505     -12339.076      1180.6509     -8484.8613     -8.1130984    
   4235000   293.39223     -12434.763      1204.3434     -8606.7803     -9.0249395    
   4240000   302.33913     -12357.69       1238.0449     -8415.9984     -18.012702    
   4245000   303.87052     -12503.286      1239.4146     -8546.531      -10.649415    
   4250000   303.11055     -12405.8        1187.572      -8507.6831     -3.4680436    
   4255000   299.81273     -12497.748      1246.516      -8570.1771      6.2143722    
   4260000   302.49005     -12404.852      1201.618      -8498.2381      19.6658      
   4265000   292.95949     -12402.527      1219.1797     -8563.5777      5.0446782    
   4270000   305.46069     -12364.018      1232.2194     -8400.238      -8.7316925    
   4275000   297.43366     -12440.45       1225.1258     -8555.5442     -16.713218    
   4280000   302.26361     -12519.023      1231.0761     -8584.9761     -11.34433     
   4285000   299.60189     -12559.531      1252.0691     -8628.2929      7.0274914    
   4290000   305.85023     -12367.215      1250.1237     -8382.0466     -4.8588791    
   4295000   293.8769      -12403.667      1232.6367     -8543.0562     -7.4848753    
   4300000   304.59211     -12367.338      1200.8197     -8442.7251      8.9162069    
   4305000   304.64612     -12404.002      1236.3826     -8443.343       0.85103183   
   4310000   302.29971     -12440.812      1249.2828     -8488.235      -19.662494    
   4315000   303.01932     -12340.813      1250.0567     -8381.027      -18.126866    
   4320000   303.28111     -12394.116      1223.4252     -8458.6203      13.842138    
   4325000   291.88407     -12388.214      1299.2322     -8478.829       2.8256962    
   4330000   298.0976      -12413.715      1187.2325     -8560.7652      0.026491529  
   4335000   308.14402     -12426.207      1288.1273     -8382.5238      2.6401267    
   4340000   300.06871     -12398.508      1252.7742     -8462.3903      4.5249445    
   4345000   294.9168      -12452.857      1246.3309     -8569.2528      7.5680508    
   4350000   303.09025     -12329.071      1245.2995     -8373.4079      1.0201079    
   4355000   300.29184     -12301.461      1247.1176     -8369.005       18.098295    
   4360000   300.35392     -12491.172      1230.0286     -8575.2498      2.6107279    
   4365000   307.47294     -12452.162      1232.3784     -8470.2282     -10.573534    
   4370000   296.53315     -12413.279      1270.1713     -8491.3808     -4.2812446    
   4375000   293.48181     -12391.763      1202.9212     -8564.4017      15.934636    
   4380000   297.25267     -12442.499      1233.7813     -8550.5562     -15.088983    
   4385000   303.49566     -12421.039      1196.2334     -8510.8172      5.665686     
   4390000   302.02706     -12390.245      1206.7324     -8482.6568      16.148152    
   4395000   294.4243      -12458.294      1216.9707     -8608.4544      19.081031    
   4400000   301.04603     -12472.295      1189.2118     -8590.9999      43.83302     
   4405000   298.94066     -12365.933      1269.9311     -8422.7457     -0.69861004   
   4410000   293.45528     -12431.823      1242.6757     -8564.944      -5.9185522    
   4415000   300.9922      -12418.098      1313.1016     -8413.3944      44.516093    
   4420000   301.52273     -12455.971      1248.6464     -8510.9787      1.4694667    
   4425000   301.28195     -12393.445      1226.9278     -8472.3245      19.772604    
   4430000   293.9791      -12409.299      1230.8222     -8549.5888     -4.8596431    
   4435000   303.19953     -12542.033      1256.8943     -8573.7979      1.6622054    
   4440000   298.7967      -12383.764      1223.8375     -8487.9575      6.4383243    
   4445000   297.26926     -12399.612      1184.5301     -8556.7724     -4.7383853    
   4450000   299.27528     -12444.36       1285.3503     -8482.7616     -4.8060264    
   4455000   300.80196     -12443.34       1245.6166     -8507.8229      1.3960516    
   4460000   292.71631     -12297.842      1204.8408     -8475.4064     -19.871995    
   4465000   294.99152     -12402.19       1237.6098     -8526.6395     -14.169514    
   4470000   296.32375     -12496.838      1209.9337     -8637.0496      11.157269    
   4475000   300.86186     -12442.814      1201.447      -8550.9305      23.988491    
   4480000   295.73879     -12511.047      1218.6676     -8647.7561      17.303921    
   4485000   296.93143     -12395.74       1237.0578     -8503.394      -16.302853    
   4490000   299.04878     -12467.223      1242.6559     -8550.344       18.844068    
   4495000   300.21568     -12476.876      1255.8802     -8536.3376     -5.9300792    
   4500000   298.07892     -12492.01       1239.0037     -8587.4559     -23.793548    
   4505000   301.4654      -12438.927      1247.7688     -8495.3251      16.796606    
   4510000   302.45357     -12496.37       1223.8539     -8567.8458      2.7142596    
   4515000   298.25656     -12515.68       1253.1485     -8595.3931      9.5356718    
   4520000   299.9496      -12468.474      1214.8679     -8571.328       11.188356    
   4525000   293.34121     -12407.865      1276.694      -8507.9873      24.442809    
   4530000   307.04324     -12413.128      1247.6239     -8419.7915     -10.264697    
   4535000   305.45969     -12463.046      1234.7968     -8496.6969     -12.8596      
   4540000   298.31508     -12494.124      1273.8637     -8552.5987      17.903901    
   4545000   303.09486     -12444.314      1191.2243     -8542.6852      5.3788006    
   4550000   302.23738     -12419.108      1238.2033     -8478.1678      8.4027791    
   4555000   303.00862     -12429.692      1236.2676     -8483.7913      32.152642    
   4560000   300.43121     -12465.477      1187.1957     -8591.6958      1.5267045    
   4565000   303.31507     -12451.337      1231.3023     -8507.6608     -11.9195      
   4570000   303.26539     -12429.747      1207.9226     -8509.8944     -11.091382    
   4575000   307.25239     -12399.805      1279.2167     -8373.0051      37.772046    
   4580000   302.42561     -12386.606      1241.2124     -8440.9742      4.8984274    
   4585000   295.1902      -12471.212      1282.373      -8549.1208      7.6818874    
   4590000   297.66958     -12400.143      1198.1125     -8540.1409     -10.726804    
   4595000   298.2144      -12404.542      1234.3042     -8503.4764      0.52517226   
   4600000   299.26418     -12517.482      1234.5716     -8606.761       3.1923244    
   4605000   297.77472     -12438.226      1248.02       -8527.3766      9.6263119    
   4610000   302.81042     -12405.8        1246.2111     -8451.7277      23.91026     
   4615000   300.08984     -12431.869      1241.2951     -8507.0418      32.265198    
   4620000   303.94215     -12455.513      1257.6797     -8479.8522     -21.422733    
   4625000   299.61253     -12413.39       1229.5178     -8504.6079      16.261174    
   4630000   299.59647     -12445.639      1227.6902     -8538.8285     -2.4925061    
   4635000   291.91452     -12459.149      1222.6556     -8626.0684      8.9993083    
   4640000   301.61599     -12346.996      1239.504      -8410.3121      4.1261849    
   4645000   302.45129     -12410.805      1217.9989     -8488.1567     -11.095562    
   4650000   295.69393     -12489.059      1260.3998     -8584.4366      10.331814    
   4655000   302.90202     -12518.574      1229.0352     -8580.8586      22.123314    
   4660000   298.38125     -12453.394      1226.7261     -8558.4149      7.8228629    
   4665000   305.15827     -12356.691      1234.0252     -8393.8097      9.4004844    
   4670000   296.2266      -12414.734      1213.5016     -8552.2464      9.3885732    
   4675000   293.96796     -12419.392      1239.8655     -8550.7381     -2.955326     
   4680000   309.10278     -12389.943      1235.8932     -8389.9193      15.603787    
   4685000   297.04063     -12431.421      1236.1737     -8538.9823      9.0944958    
   4690000   295.07512     -12485.011      1196.1424     -8650.1802     -8.5240272    
   4695000   304.31329     -12495.264      1226.4956     -8547.4682      9.0848655    
   4700000   306.48393     -12382.923      1223.5873     -8418.6247      17.086766    
   4705000   298.99403     -12400.431      1216.9559     -8509.7423      7.3107076    
   4710000   296.29213     -12433.893      1235.1195     -8549.2018      9.4020364    
   4715000   302.83917     -12475.482      1232.1073     -8535.2568     -4.5892576    
   4720000   288.86073     -12561.132      1238.2162     -8739.7993     -5.0201264    
   4725000   303.52932     -12506.604      1220.8936     -8571.4206     -5.4826123    
   4730000   301.221       -12481.096      1211.9073     -8575.5405      9.2029295    
   4735000   308.23107     -12491.058      1222.6484     -8512.0745     -0.52242826   
   4740000   301.89956     -12493.374      1250.1414     -8543.5164     -10.844479    
   4745000   301.61604     -12446.025      1231.7636     -8517.0814     -11.460336    
   4750000   300.53192     -12460.371      1255.4715     -8517.4135     -5.8112251    
   4755000   302.54126     -12403.819      1244.0056     -8454.359       14.795694    
   4760000   292.83397     -12441.073      1246.6085     -8575.8169      2.9977037    
   4765000   298.86674     -12460.947      1211.8144     -8576.5373      17.011035    
   4770000   301.43673     -12447.931      1215.0908     -8537.2637     -18.945464    
   4775000   301.60901     -12421.783      1231.1227     -8493.5429     -19.951489    
   4780000   301.02852     -12408.25       1270.8627     -8445.4604     -26.69371     
   4785000   291.94707     -12393.03       1228.5677     -8553.7461      32.599886    
   4790000   298.82093     -12493.67       1257.9054     -8563.5792      6.1993003    
   4795000   305.63723     -12351.061      1229.4593     -8388.4626      4.3066099    
   4800000   297.1413      -12502.87       1238.3776     -8607.3268     -18.452085    
   4805000   299.04343     -12477.984      1192.9432     -8610.866       8.8804022    
   4810000   292.83448     -12419.274      1214.8637     -8585.7585     -4.5501683    
   4815000   305.71703     -12420.296      1252.4255     -8434.0177     -0.2462915    
   4820000   302.20758     -12328.291      1250.8168     -8375.0044      2.318421     
   4825000   303.20175     -12418.197      1203.5241     -8503.3125      3.4997       
   4830000   305.38342     -12423.341      1244.0931     -8448.3783     -6.1825352    
   4835000   302.56928     -12437.341      1256.973      -8474.6636      11.569465    
   4840000   300.94303     -12379.013      1225.4232     -8462.4283      10.309793    
   4845000   306.17638     -12367.091      1243.6776     -8385.4521      28.421203    
   4850000   298.97727     -12519.339      1198.2226     -8647.533      -6.8816313    
   4855000   296.60556     -12457.176      1287.8457     -8516.9555      0.55402445   
   4860000   297.15494     -12356.077      1289.8096     -8408.9798      17.8727      
   4865000   301.65508     -12424.545      1236.0113     -8491.004      -37.582465    
   4870000   306.73572     -12437.251      1182.318      -8511.9699      7.3428921    
   4875000   306.06526     -12397.471      1197.5865     -8462.9178      5.7748697    
   4880000   301.66796     -12537.259      1277.634      -8561.9799      3.5091113    
   4885000   293.75686     -12379.094      1259.3884     -8492.8051     -10.268451    
   4890000   300.46725     -12506.417      1280.9135     -8538.596      -0.50398989   
   4895000   297.88104     -12468.796      1205.5626     -8599.4529     -12.523705    
   4900000   303.83247     -12452.865      1248.5707     -8487.2936     -14.655784    
   4905000   296.8197      -12559.452      1277.2462     -8627.9159      7.7393571    
   4910000   303.78435     -12389.464      1237.9285     -8434.9647     -17.842108    
   4915000   301.92836     -12469.064      1215.4237     -8553.6674      3.183608     
   4920000   301.52292     -12404.796      1213.0148     -8495.4339     -27.103903    
   4925000   291.98058     -12475.943      1265.9359     -8598.9914      19.889322    
   4930000   300.48354     -12563.502      1208.7388     -8667.7097      7.9360937    
   4935000   296.50137     -12504.891      1271.5404     -8581.9083     -1.5804594    
   4940000   299.35365     -12444.114      1305.61       -8461.5554      32.480633    
   4945000   296.93558     -12474.239      1229.3626     -8589.5511     -21.150065    
   4950000   298.65856     -12407.516      1256.6049     -8480.1774     -21.306249    
   4955000   308.09037     -12463.561      1209.646      -8498.838       0.90725376   
   4960000   303.0493      -12555.065      1198.6379     -8646.4298      3.8516764    
   4965000   304.31599     -12421.527      1202.9096     -8497.2926      26.146021    
   4970000   298.03045     -12419.376      1229.3297     -8524.9295      7.8833067    
   4975000   295.8334      -12448.011      1230.3253     -8572.2159      19.659369    
   4980000   303.17349     -12541.767      1213.6155     -8617.044      -7.4293926    
   4985000   301.88009     -12466.77       1187.6772     -8579.5511      3.823594     
   4990000   289.60991     -12506.384      1213.7967     -8702.7713     -4.3618277    
   4995000   296.31732     -12448.882      1250.391      -8548.6943      6.0990463    
   5000000   300.91487     -12457.564      1220.4644     -8546.1897     -3.0933917    
   5005000   300.40462     -12356.873      1214.2658     -8456.2603      8.584627     
   5010000   297.85216     -12543.252      1218.0047     -8661.7248      18.57224     
Loop time of 8271.59 on 18 procs for 5000000 steps with 3001 atoms

Performance: 1566.809 ns/day, 0.015 hours/ns, 604.479 timesteps/s
99.7% CPU use with 18 MPI tasks x 1 OpenMP threads

MPI task timing breakdown:
Section |  min time  |  avg time  |  max time  |%varavg| %total
---------------------------------------------------------------
Pair    | 37.066     | 867.25     | 3478.4     |3373.7 | 10.48
Bond    | 4.2463     | 50.287     | 199.82     | 761.7 |  0.61
Neigh   | 3117.4     | 3129.8     | 3152.8     |  23.9 | 37.84
Comm    | 1203       | 4082.4     | 5001.6     |1715.2 | 49.35
Output  | 25.545     | 25.605     | 25.637     |   0.5 |  0.31
Modify  | 7.0115     | 54.967     | 189.11     | 725.8 |  0.66
Other   |            | 61.2       |            |       |  0.74

Nlocal:        166.722 ave         609 max           5 min
Histogram: 8 0 1 7 0 0 0 0 0 2
Nghost:        5047.44 ave        6015 max        3244 min
Histogram: 2 0 0 0 6 2 0 0 0 8
Neighs:        6110.67 ave       24148 max          63 min
Histogram: 8 0 4 3 1 0 0 0 0 2
FullNghs:      12221.3 ave       48261 max         230 min
Histogram: 8 0 3 5 0 0 0 0 0 2

Total # of neighbors = 219984
Ave neighs/atom = 73.303565
Ave special neighs/atom = 3.5988004
Neighbor list builds = 500000
Dangerous builds = 500000
Total wall time: 2:17:57
