ITEM: TIMESTEP
0
ITEM: NUMBER OF ATOMS
3001
ITEM: BOX BOUNDS pp pp pp
0.0000000000000000e+00 1.5000000000000000e+02
0.0000000000000000e+00 1.5000000000000000e+02
0.0000000000000000e+00 1.5000000000000000e+02
ITEM: ATOMS type x y z
4 75 75 75
2 5.63052 24.7002 46.1953
1 10.3039 24.4893 46.6478
1 14.9773 24.2784 47.1003
1 19.6508 24.0675 47.5528
1 24.3242 23.8566 48.0053
2 28.9852 148.084 33.7403
1 31.5659 0.22097 30.4443
1 34.1466 2.35778 27.1482
1 36.7273 4.49458 23.8522
1 39.3081 6.63139 20.5562
2 22.2498 13.915 21.4594
1 19.5234 10.3452 22.8425
1 16.797 6.7754 24.2257
1 14.0705 3.20561 25.6088
1 11.3441 149.636 26.9919
2 45.3435 38.4969 20.3613
1 43.7849 42.8554 21.1767
1 42.2263 47.2138 21.9921
1 40.6677 51.5722 22.8076
1 39.1091 55.9306 23.623
2 52.1594 25.8482 17.0576
1 56.5767 26.08 18.6463
1 60.994 26.3117 20.2349
1 65.4113 26.5434 21.8236
1 69.8286 26.7751 23.4123
2 14.2421 26.9733 31.8283
1 18.8044 26.152 32.6031
1 23.3668 25.3307 33.378
1 27.9291 24.5094 34.1529
1 32.4915 23.6881 34.9278
2 20.7499 51.6808 7.33225
1 17.6099 48.184 7.28257
1 14.4698 44.6872 7.23288
1 11.3298 41.1903 7.1832
1 8.1898 37.6935 7.13352
2 3.38666 52.5012 17.9805
1 3.77411 47.9297 19.0007
1 4.16156 43.3581 20.0209
1 4.54901 38.7866 21.0412
1 4.93646 34.215 22.0614
2 143.795 40.7282 2.38381
1 147.412 38.5085 4.40438
1 1.02852 36.2888 6.42495
1 4.64518 34.0691 8.44552
1 8.26184 31.8494 10.4661
2 26.677 20.4426 26.9779
1 30.8987 18.7988 25.7267
1 35.1203 17.155 24.4754
1 39.342 15.5112 23.2242
1 43.5636 13.8674 21.9729
2 53.4111 52.2867 39.219
1 49.7644 50.0499 41.1651
1 46.1176 47.813 43.1112
1 42.4708 45.5761 45.0573
1 38.824 43.3393 47.0035
2 47.073 15.109 23.5884
1 47.4466 14.7355 28.2586
1 47.8202 14.362 32.9289
1 48.1938 13.9886 37.5991
1 48.5675 13.6151 42.2693
2 2.93439 54.081 38.6525
1 6.63614 51.6029 40.1512
1 10.3379 49.1249 41.6499
1 14.0397 46.6468 43.1486
1 17.7414 44.1687 44.6473
2 40.9602 4.80995 19.475
1 45.4876 3.55685 19.3255
1 50.015 2.30375 19.1759
1 54.5424 1.05065 19.0264
1 59.0698 149.798 18.8769
2 39.8633 40.4635 26.5493
1 41.018 43.669 23.3119
1 42.1727 46.8745 20.0744
1 43.3274 50.0801 16.8369
1 44.4821 53.2856 13.5994
2 70.6684 40.5689 39.3591
1 67.7503 37.9614 41.9622
1 64.8322 35.354 44.5653
1 61.9141 32.7466 47.1683
1 58.996 30.1391 49.7714
2 34.1887 15.043 11.4792
1 35.1718 10.4983 12.1643
1 36.1549 5.95364 12.8495
1 37.138 1.40896 13.5346
1 38.1211 146.864 14.2198
2 50.8605 31.7122 21.5991
1 50.5053 27.0262 21.6707
1 50.1501 22.3402 21.7424
1 49.7949 17.6542 21.8141
1 49.4397 12.9682 21.8858
2 25.3678 34.9963 148.941
1 22.3061 38.4269 149.914
1 19.2445 41.8576 0.887056
1 16.1828 45.2883 1.86004
1 13.1212 48.719 2.83302
2 26.6333 52.5776 6.81007
1 27.0712 48.4049 8.92833
1 27.509 44.2322 11.0466
1 27.9469 40.0596 13.1649
1 28.3847 35.8869 15.2831
2 149.412 22.4583 9.88788
1 3.9457 21.5064 9.09704
1 8.47983 20.5544 8.3062
1 13.014 19.6025 7.51535
1 17.5481 18.6505 6.72451
2 39.9135 45.0348 7.26039
1 43.158 41.6703 6.76746
1 46.4026 38.3058 6.27452
1 49.6471 34.9413 5.78159
1 52.8917 31.5768 5.28865
2 23.2746 19.2421 17.504
1 21.076 21.3847 21.0628
1 18.8775 23.5274 24.6216
1 16.6789 25.67 28.1804
1 14.4803 27.8127 31.7393
2 46.4672 26.8944 42.1511
1 50.8032 25.082 42.0829
1 55.1391 23.2696 42.0148
1 59.4751 21.4572 41.9467
1 63.8111 19.6448 41.8785
2 148.208 12.2934 33.881
1 149.823 9.47241 37.2759
1 1.4373 6.65144 40.6709
1 3.05175 3.83046 44.0658
1 4.66619 1.00948 47.4607
2 38.6393 28.2303 36.0356
1 43.3328 27.9854 36.0037
1 48.0263 27.7406 35.9718
1 52.7198 27.4957 35.9399
1 57.4133 27.2509 35.9081
2 27.4115 15.0481 13.2272
1 26.598 12.0224 9.72397
1 25.7844 8.99662 6.22068
1 24.9709 5.97087 2.7174
1 24.1573 2.94513 149.214
2 10.3773 29.6004 34.3301
1 10.8656 28.2557 38.8071
1 11.354 26.911 43.284
1 11.8424 25.5663 47.761
1 12.3308 24.2216 52.238
2 21.6048 14.8921 3.02994
1 25.9304 14.6441 4.85125
1 30.2561 14.3962 6.67256
1 34.5818 14.1482 8.49386
1 38.9074 13.9003 10.3152
2 35.0764 8.48884 22.3067
1 39.7747 8.43084 22.4179
1 44.473 8.37285 22.5291
1 49.1714 8.31486 22.6402
1 53.8697 8.25687 22.7514
2 13.2065 34.2596 9.38602
1 14.7886 38.4961 8.10574
1 16.3707 42.7326 6.82547
1 17.9528 46.9691 5.54519
1 19.5349 51.2056 4.26491
2 56.2057 26.4254 12.8975
1 51.8305 28.0373 13.4881
1 47.4552 29.6492 14.0786
1 43.0799 31.2611 14.6691
1 38.7047 32.873 15.2597
2 18.6714 0.0988097 25.2047
1 20.6928 3.92789 23.3765
1 22.7142 7.75698 21.5484
1 24.7356 11.5861 19.7202
1 26.757 15.4151 17.8921
2 38.0148 27.8304 21.316
1 42.2575 28.5168 19.4139
1 46.5002 29.2032 17.5118
1 50.7429 29.8895 15.6096
1 54.9857 30.5759 13.7075
2 3.20645 2.20474 30.5341
1 7.79708 1.20145 30.4365
1 12.3877 0.198152 30.3389
1 16.9783 149.195 30.2413
1 21.569 148.192 30.1437
2 52.716 40.0536 143.93
1 54.026 36.9082 147.167
1 55.3361 33.7627 0.404615
1 56.6462 30.6173 3.64192
1 57.9562 27.4719 6.87922
2 51.8884 32.3871 84.6588
1 52.3004 35.179 80.9004
1 52.7124 37.9709 77.142
1 53.1245 40.7628 73.3836
1 53.5365 43.5547 69.6252
2 9.56829 42.7884 66.1478
1 6.92309 45.5913 63.4577
1 4.27788 48.3942 60.7676
1 1.63268 51.197 58.0774
1 148.987 53.9999 55.3873
2 47.5083 38.2851 55.9341
1 52.1319 38.3549 55.0928
1 56.7554 38.4247 54.2515
1 61.379 38.4945 53.4102
1 66.0025 38.5644 52.5689
2 70.1333 38.5978 92.4581
1 71.7355 36.5264 88.5553
1 73.3376 34.455 84.6524
1 74.9397 32.3836 80.7495
1 76.5418 30.3122 76.8466
2 49.4652 43.4823 82.8117
1 53.9584 44.8545 82.9458
1 58.4516 46.2268 83.0798
1 62.9448 47.599 83.2138
1 67.4381 48.9712 83.3478
2 25.9137 2.48682 100.595
1 30.5433 1.9202 100.015
1 35.1729 1.35357 99.4358
1 39.8025 0.786941 98.8563
1 44.4321 0.220314 98.2769
2 46.3273 21.1599 108.149
1 45.5925 22.7386 103.784
1 44.8578 24.3172 99.418
1 44.123 25.8959 95.0525
1 43.3882 27.4745 90.6869
2 34.5146 44.6446 95.1108
1 34.158 47.0423 91.0841
1 33.8014 49.4399 87.0574
1 33.4448 51.8376 83.0308
1 33.0882 54.2353 79.0041
2 6.10234 33.998 65.9804
1 8.77725 30.174 65.4218
1 11.4522 26.35 64.8632
1 14.1271 22.526 64.3047
1 16.802 18.7021 63.7461
2 24.7183 41.3525 92.47
1 27.5638 40.1528 88.9268
1 30.4093 38.9531 85.3837
1 33.2548 37.7535 81.8405
1 36.1003 36.5538 78.2974
2 7.6926 2.06803 73.1825
1 12.3517 1.63413 72.7417
1 17.0108 1.20023 72.3008
1 21.67 0.766331 71.86
1 26.3291 0.33243 71.4192
2 58.0752 34.9082 100.217
1 60.686 31.2905 98.7384
1 63.2967 27.6728 97.2597
1 65.9074 24.0551 95.7811
1 68.5182 20.4374 94.3025
2 13.407 31.9173 72.8651
1 17.7578 30.187 72.4566
1 22.1086 28.4567 72.0481
1 26.4593 26.7264 71.6396
1 30.8101 24.9961 71.2311
2 49.1184 16.3834 97.1345
1 50.7095 17.0299 92.7596
1 52.3007 17.6765 88.3846
1 53.8919 18.323 84.0097
1 55.483 18.9695 79.6347
2 64.7628 32.0521 55.4111
1 67.9658 32.3872 58.8344
1 71.1687 32.7222 62.2577
1 74.3717 33.0573 65.681
1 77.5746 33.3923 69.1043
2 32.1815 21.3786 94.1916
1 30.2197 25.2797 92.453
1 28.2578 29.1807 90.7143
1 26.296 33.0818 88.9757
1 24.3341 36.9829 87.2371
2 17.2687 13.786 95.0273
1 17.4259 17.5118 92.1666
1 17.5832 21.2375 89.3058
1 17.7405 24.9633 86.445
1 17.8978 28.6891 83.5843
2 60.6219 31.2455 95.2133
1 61.6248 32.4755 90.7893
1 62.6277 33.7054 86.3654
1 63.6306 34.9353 81.9414
1 64.6335 36.1652 77.5174
2 59.1133 19.5089 65.3622
1 62.9407 21.3095 63.3132
1 66.7682 23.1101 61.2642
1 70.5957 24.9107 59.2152
1 74.4231 26.7113 57.1662
2 40.7889 34.0522 89.2909
1 39.1511 34.4944 84.9077
1 37.5132 34.9367 80.5246
1 35.8754 35.3789 76.1415
1 34.2376 35.8211 71.7583
2 54.1794 20.8783 101.315
1 50.8797 24.0168 100.153
1 47.58 27.1553 98.9899
1 44.2803 30.2938 97.8273
1 40.9806 33.4323 96.6647
2 49.4493 33.2008 78.2308
1 48.3629 28.9992 76.4262
1 47.2764 24.7977 74.6216
1 46.19 20.5961 72.817
1 45.1035 16.3946 71.0123
2 7.12885 9.5656 98.4056
1 4.42139 7.70395 95.045
1 1.71392 5.84231 91.6843
1 149.006 3.98066 88.3237
1 146.299 2.11902 84.963
2 43.781 0.489269 93.199
1 47.0721 2.09056 96.1476
1 50.3632 3.69186 99.0963
1 53.6542 5.29316 102.045
1 56.9453 6.89445 104.994
2 51.9476 7.90359 51.4678
1 56.622 7.46081 51.6785
1 61.2963 7.01802 51.8893
1 65.9707 6.57524 52.1
1 70.645 6.13245 52.3107
2 17.3929 38.564 101.987
1 16.3863 37.9645 97.4358
1 15.3797 37.365 92.8841
1 14.3732 36.7655 88.3325
1 13.3666 36.166 83.7808
2 63.248 14.0332 128.259
1 61.9379 17.7435 125.688
1 60.6278 21.4537 123.118
1 59.3177 25.164 120.548
1 58.0076 28.8743 117.977
2 36.3666 34.9496 134.17
1 38.7113 30.9018 134.626
1 41.0559 26.854 135.082
1 43.4006 22.8062 135.538
1 45.7453 18.7584 135.994
2 46.0779 35.6849 125.829
1 44.7054 40.1181 125.086
1 43.3328 44.5513 124.343
1 41.9603 48.9846 123.599
1 40.5877 53.4178 122.856
2 63.318 22.8605 118.926
1 63.5167 18.2746 117.916
1 63.7153 13.6888 116.906
1 63.914 9.10286 115.896
1 64.1126 4.51697 114.886
2 51.9982 26.6091 111.399
1 54.5324 22.6745 111.831
1 57.0666 18.7399 112.264
1 59.6008 14.8054 112.697
1 62.135 10.8708 113.129
2 51.3883 26.6265 95.2724
1 53.7234 26.2797 99.3365
1 56.0585 25.9328 103.401
1 58.3937 25.586 107.465
1 60.7288 25.2392 111.529
2 61.0771 10.3461 127.17
1 64.1631 7.69796 124.813
1 67.2491 5.04983 122.456
1 70.335 2.4017 120.099
1 73.421 149.754 117.743
2 38.497 40.5348 121.577
1 35.3589 37.7235 119.494
1 32.2208 34.9121 117.411
1 29.0827 32.1007 115.328
1 25.9446 29.2893 113.245
2 67.4868 1.25208 107.794
1 71.0049 4.35982 107.559
1 74.523 7.46756 107.324
1 78.041 10.5753 107.089
1 81.5591 13.683 106.855
2 47.9003 27.8756 126.09
1 43.2956 27.5208 126.962
1 38.6909 27.1659 127.834
1 34.0861 26.8111 128.706
1 29.4814 26.4562 129.578
2 19.7648 34.3964 112.245
1 20.7987 38.5544 114.177
1 21.8327 42.7123 116.108
1 22.8667 46.8703 118.04
1 23.9007 51.0283 119.972
2 62.4443 13.4619 116.879
1 62.8257 16.726 120.239
1 63.207 19.9901 123.599
1 63.5883 23.2542 126.959
1 63.9697 26.5183 130.319
2 61.7992 43.9954 92.9012
1 64.7752 44.1879 96.5339
1 67.7512 44.3803 100.167
1 70.7272 44.5728 103.799
1 73.7032 44.7653 107.432
2 31.01 18.2429 127.755
1 35.5641 17.171 127.307
1 40.1182 16.0991 126.859
1 44.6723 15.0271 126.41
1 49.2264 13.9552 125.962
2 24.0058 21.8635 130.225
1 28.586 22.3103 129.27
1 33.1661 22.7571 128.314
1 37.7462 23.2039 127.359
1 42.3264 23.6507 126.404
2 36.6073 31.7557 114.258
1 39.1617 27.8495 113.705
1 41.7162 23.9432 113.152
1 44.2706 20.0369 112.599
1 46.8251 16.1306 112.046
2 24.1898 34.8104 141.254
1 23.3281 39.0208 139.351
1 22.4664 43.2312 137.449
1 21.6048 47.4417 135.546
1 20.7431 51.6521 133.644
2 35.6147 43.0188 122.741
1 35.0739 44.9633 126.985
1 34.533 46.9079 131.23
1 33.9922 48.8525 135.474
1 33.4514 50.7971 139.719
2 27.2272 39.6031 139.829
1 31.3084 41.252 138.181
1 35.3896 42.901 136.533
1 39.4708 44.5499 134.886
1 43.552 46.1988 133.238
2 57.3837 43.142 106.423
1 60.2513 41.0837 103.319
1 63.1189 39.0254 100.216
1 65.9865 36.9671 97.1129
1 68.8541 34.9088 94.0097
2 18.9138 149.421 132.894
1 23.4823 149.759 131.843
1 28.0508 0.0970305 130.792
1 32.6193 0.435059 129.741
1 37.1879 0.773088 128.69
2 37.4849 31.1947 141.899
1 42.1355 31.8716 141.965
1 46.786 32.5485 142.031
1 51.4365 33.2253 142.097
1 56.0871 33.9022 142.163
2 68.3495 46.4628 117.494
1 65.3059 44.6413 120.578
1 62.2623 42.8199 123.662
1 59.2187 40.9984 126.745
1 56.1751 39.177 129.829
2 38.3398 42.4059 145.021
1 42.425 44.6261 145.708
1 46.5102 46.8463 146.395
1 50.5954 49.0666 147.082
1 54.6806 51.2868 147.769
2 7.64143 17.7027 147.886
1 6.77519 14.7906 144.3
1 5.90896 11.8784 140.714
1 5.04273 8.9663 137.129
1 4.17649 6.05417 133.543
2 9.87568 35.7761 112.516
1 14.3814 36.531 113.62
1 18.8872 37.2859 114.724
1 23.393 38.0408 115.828
1 27.8987 38.7957 116.931
2 9.36048 16.53 113.863
1 9.25473 16.8003 109.172
1 9.14899 17.0705 104.481
1 9.04325 17.3408 99.7903
1 8.9375 17.6111 95.0992
2 63.7411 6.04948 143.586
1 68.0565 4.31415 142.91
1 72.3718 2.57882 142.235
1 76.6871 0.843489 141.559
1 81.0025 149.108 140.883
2 17.1244 52.9184 116.263
1 16.0516 49.9482 112.782
1 14.9787 46.978 109.301
1 13.9058 44.0078 105.82
1 12.833 41.0376 102.339
2 17.67 21.1134 144.423
1 13.6106 23.3414 143.618
1 9.55111 25.5693 142.814
1 5.49165 27.7972 142.009
1 1.43218 30.0251 141.205
2 67.9264 44.1654 128.034
1 69.0435 41.6763 124.207
1 70.1606 39.1873 120.38
1 71.2777 36.6982 116.553
1 72.3948 34.2092 112.726
2 0.592193 5.02483 147.289
1 5.28523 4.88636 147.504
1 9.97827 4.74789 147.719
1 14.6713 4.60942 147.934
1 19.3643 4.47094 148.149
2 143.52 5.83718 122.691
1 147.162 3.67627 120.651
1 0.803327 1.51536 118.612
1 4.44511 149.354 116.573
1 8.08689 147.194 114.534
2 17.4625 42.5944 149.413
1 17.3941 43.3949 144.782
1 17.3258 44.1953 140.151
1 17.2574 44.9957 135.52
1 17.1891 45.7961 130.889
2 63.038 40.3642 132.433
1 65.3455 42.4984 135.927
1 67.653 44.6326 139.422
1 69.9606 46.7667 142.916
1 72.2681 48.9009 146.41
2 63.578 64.0606 2.49364
1 64.1482 68.7249 2.39932
1 64.7185 73.3892 2.30501
1 65.2887 78.0535 2.2107
1 65.859 82.7178 2.11639
2 36.4792 90.5516 31.2263
1 40.0232 88.0849 33.0824
1 43.5673 85.6182 34.9384
1 47.1114 83.1515 36.7945
1 50.6554 80.6848 38.6505
2 16.5935 76.4949 26.2626
1 13.529 75.6927 29.7346
1 10.4644 74.8904 33.2066
1 7.39981 74.0882 36.6786
1 4.33524 73.2859 40.1506
2 68.5231 80.4262 1.79147
1 71.7126 80.1833 5.23503
1 74.9021 79.9404 8.67859
1 78.0916 79.6975 12.1221
1 81.2811 79.4546 15.5657
2 30.2062 82.5376 40.9701
1 34.4947 82.0654 39.106
1 38.7833 81.5932 37.2418
1 43.0719 81.121 35.3777
1 47.3605 80.6488 33.5136
2 6.05754 70.2328 20.5353
1 10.7553 70.1337 20.6407
1 15.4531 70.0346 20.746
1 20.1509 69.9354 20.8514
1 24.8486 69.8363 20.9567
2 65.7317 94.2132 14.063
1 68.162 94.2746 10.0406
1 70.5923 94.3361 6.0182
1 73.0226 94.3975 1.99578
1 75.4529 94.4589 147.973
2 47.9494 71.021 33.4643
1 51.0636 68.3236 31.2025
1 54.1778 65.6262 28.9407
1 57.292 62.9288 26.6788
1 60.4061 60.2313 24.417
2 23.141 78.8113 21.1521
1 27.5484 79.8759 19.9147
1 31.9558 80.9406 18.6773
1 36.3632 82.0053 17.4399
1 40.7706 83.0699 16.2025
2 51.4998 56.1821 21.4613
1 52.419 56.227 16.8523
1 53.3383 56.2719 12.2433
1 54.2575 56.3169 7.63429
1 55.1768 56.3618 3.02528
2 29.4608 92.8805 39.179
1 29.2895 91.713 43.7285
1 29.1183 90.5455 48.2779
1 28.947 89.378 52.8274
1 28.7757 88.2105 57.3768
2 41.5338 78.3002 49.5167
1 45.8169 79.5141 48.0096
1 50.1 80.7281 46.5024
1 54.3831 81.942 44.9953
1 58.6662 83.1559 43.4882
2 51.4941 72.2569 15.3034
1 55.7278 72.2343 13.2625
1 59.9615 72.2117 11.2215
1 64.1951 72.189 9.18058
1 68.4288 72.1664 7.13964
2 14.8995 73.4557 10.3165
1 13.1816 72.3564 14.551
1 11.4638 71.2571 18.7854
1 9.74585 70.1579 23.0198
1 8.02795 69.0586 27.2542
2 1.78873 87.6374 19.2401
1 5.61807 85.1011 18.2433
1 9.44741 82.5648 17.2466
1 13.2767 80.0286 16.2498
1 17.1061 77.4923 15.2531
2 37.0417 57.394 22.8091
1 40.6739 55.8737 20.2429
1 44.3062 54.3534 17.6767
1 47.9385 52.8331 15.1105
1 51.5707 51.3128 12.5443
2 36.3742 55.6095 35.6616
1 40.5992 57.1687 37.0066
1 44.8241 58.7278 38.3516
1 49.049 60.287 39.6966
1 53.274 61.8461 41.0415
2 67.826 90.9712 27.7438
1 69.999 92.7482 31.5134
1 72.172 94.5252 35.2831
1 74.345 96.3022 39.0527
1 76.518 98.0792 42.8224
2 61.3006 88.058 42.3314
1 65.9686 87.7486 41.8789
1 70.6365 87.4392 41.4264
1 75.3044 87.1299 40.9739
1 79.9723 86.8205 40.5214
2 13.7637 67.2358 30.9248
1 18.2363 67.5867 29.5238
1 22.7089 67.9377 28.1228
1 27.1814 68.2886 26.7217
1 31.654 68.6395 25.3207
2 42.1721 59.5124 10.2493
1 45.2249 55.942 10.4015
1 48.2776 52.3717 10.5537
1 51.3304 48.8013 10.7059
1 54.3831 45.2309 10.8581
2 43.3843 98.0642 8.75015
1 47.4255 98.6499 6.42292
1 51.4666 99.2357 4.09568
1 55.5078 99.8214 1.76845
1 59.5489 100.407 149.441
2 48.369 52.8803 148.956
1 51.7461 55.1069 1.34945
1 55.1233 57.3335 3.74259
1 58.5005 59.56 6.13573
1 61.8776 61.7866 8.52887
2 62.7946 101.123 144.777
1 65.0468 98.3408 147.822
1 67.2991 95.5584 0.867916
1 69.5513 92.7761 3.91359
1 71.8036 89.9938 6.95927
2 46.5157 79.8046 50.715
1 46.1483 84.345 49.5577
1 45.7809 88.8855 48.4005
1 45.4135 93.4259 47.2432
1 45.0461 97.9664 46.0859
2 17.7621 69.6179 38.9276
1 22.2883 69.3538 40.1664
1 26.8144 69.0897 41.4052
1 31.3405 68.8257 42.6439
1 35.8666 68.5616 43.8827
2 50.4701 60.2623 41.2888
1 48.4948 56.0189 41.7152
1 46.5194 51.7756 42.1416
1 44.5441 47.5322 42.5681
1 42.5687 43.2888 42.9945
2 24.3353 48.1486 55.7252
1 21.5448 50.6183 52.861
1 18.7543 53.088 49.9968
1 15.9638 55.5577 47.1326
1 13.1732 58.0274 44.2684
2 22.3579 83.8556 2.94425
1 22.8953 84.0312 7.61012
1 23.4327 84.2067 12.276
1 23.9702 84.3823 16.9419
1 24.5076 84.5578 21.6077
2 56.4003 52.2245 8.09674
1 54.9229 54.6321 11.8532
1 53.4454 57.0397 15.6096
1 51.968 59.4472 19.366
1 50.4905 61.8548 23.1225
2 49.3327 75.1723 62.0225
1 44.8299 76.2684 62.8057
1 40.3271 77.3644 63.5889
1 35.8243 78.4604 64.3721
1 31.3215 79.5565 65.1553
2 59.5815 43.0284 53.5207
1 62.2787 46.8579 53.1331
1 64.9759 50.6874 52.7455
1 67.6732 54.5168 52.3579
1 70.3704 58.3463 51.9703
2 1.02748 91.6885 81.2294
1 4.30078 94.5762 79.4869
1 7.57407 97.464 77.7445
1 10.8474 100.352 76.002
1 14.1207 103.24 74.2595
2 6.40118 54.9725 99.7199
1 7.81187 54.2992 95.2875
1 9.22256 53.6259 90.855
1 10.6333 52.9526 86.4226
1 12.044 52.2793 81.9901
2 0.56109 107.56 84.6155
1 0.337033 103.168 86.2745
1 0.112975 98.7766 87.9334
1 149.889 94.3848 89.5924
1 149.665 89.993 91.2514
2 1.3617 62.8259 86.8798
1 0.932368 58.6766 89.0452
1 0.503036 54.5274 91.2107
1 0.0737043 50.3781 93.3761
1 149.644 46.2288 95.5415
2 46.3757 76.2827 73.3575
1 42.7222 77.6317 75.9885
1 39.0688 78.9807 78.6196
1 35.4153 80.3297 81.2506
1 31.7619 81.6787 83.8817
2 21.7767 92.4143 61.8281
1 25.6529 94.439 63.5501
1 29.5292 96.4637 65.2722
1 33.4054 98.4884 66.9943
1 37.2816 100.513 68.7164
2 11.6424 97.1507 99.2536
1 16.2973 96.5449 99.0211
1 20.9523 95.9391 98.7886
1 25.6073 95.3333 98.5561
1 30.2623 94.7275 98.3236
2 5.4878 92.2818 61.1811
1 2.81823 95.3721 58.8544
1 0.148656 98.4623 56.5277
1 147.479 101.553 54.201
1 144.81 104.643 51.8742
2 60.7612 50.6673 57.7315
1 65.2694 51.552 56.74
1 69.7776 52.4368 55.7484
1 74.2858 53.3216 54.7568
1 78.794 54.2064 53.7653
2 46.3896 69.1001 67.3953
1 43.0056 70.6979 70.2389
1 39.6217 72.2957 73.0825
1 36.2378 73.8934 75.9261
1 32.8539 75.4912 78.7697
2 21.9721 55.3387 65.363
1 25.7227 57.1056 67.5767
1 29.4734 58.8725 69.7905
1 33.224 60.6394 72.0042
1 36.9747 62.4063 74.218
2 27.6966 51.8785 60.1973
1 32.3556 52.2783 59.7235
1 37.0145 52.678 59.2496
1 41.6734 53.0777 58.7758
1 46.3324 53.4775 58.302
2 13.4716 45.1077 59.83
1 15.2116 49.3033 58.6221
1 16.9515 53.499 57.4141
1 18.6914 57.6946 56.2062
1 20.4313 61.8903 54.9983
2 18.416 77.7316 75.6061
1 14.7349 79.9091 77.555
1 11.0539 82.0866 79.5039
1 7.37278 84.2641 81.4528
1 3.69171 86.4416 83.4017
2 53.7886 89.4286 102.345
1 51.7708 93.2283 100.453
1 49.7529 97.0279 98.5602
1 47.735 100.828 96.6678
1 45.7172 104.627 94.7755
2 14.7882 77.185 68.2481
1 12.6397 76.9672 72.4226
1 10.4913 76.7494 76.5971
1 8.34279 76.5315 80.7716
1 6.19431 76.3137 84.9461
2 41.6767 82.8217 62.5865
1 39.9402 87.0054 63.84
1 38.2038 91.1891 65.0935
1 36.4673 95.3728 66.347
1 34.7309 99.5565 67.6004
2 12.1693 89.575 78.5761
1 14.5482 91.4264 74.9702
1 16.9271 93.2779 71.3642
1 19.3059 95.1293 67.7582
1 21.6848 96.9808 64.1522
2 28.4891 92.764 57.3917
1 31.9231 94.069 54.46
1 35.357 95.374 51.5283
1 38.791 96.6791 48.5965
1 42.2249 97.9841 45.6648
2 52.2408 96.7709 104.029
1 55.8253 98.073 101.282
1 59.4097 99.3752 98.5351
1 62.9942 100.677 95.7881
1 66.5786 101.979 93.041
2 34.9026 49.7252 76.71
1 38.8725 51.4745 78.5182
1 42.8425 53.2237 80.3265
1 46.8124 54.9729 82.1348
1 50.7823 56.7221 83.943
2 60.7148 63.325 53.7637
1 62.3725 59.273 52.0538
1 64.0302 55.2211 50.3439
1 65.6878 51.1691 48.634
1 67.3455 47.1171 46.9242
2 20.7449 63.0338 70.3344
1 22.6816 61.6227 74.3777
1 24.6183 60.2117 78.421
1 26.555 58.8007 82.4643
1 28.4917 57.3897 86.5076
2 144.547 94.0045 58.5515
1 149.035 95.1089 57.6961
1 3.52212 96.2133 56.8406
1 8.0097 97.3177 55.9851
1 12.4973 98.4221 55.1296
2 77.2393 62.9436 149.593
1 74.7536 59.518 147.549
1 72.2679 56.0924 145.505
1 69.7822 52.6669 143.462
1 67.2965 49.2413 141.418
2 67.7369 67.7217 113.768
1 71.1586 69.7152 111.236
1 74.5803 71.7087 108.705
1 78.0021 73.7023 106.174
1 81.4238 75.6958 103.643
2 21.5686 54.2923 118.906
1 24.6552 55.2721 122.312
1 27.7418 56.2519 125.718
1 30.8284 57.2317 129.125
1 33.9149 58.2115 132.531
2 36.9537 104.683 108.438
1 38.8641 100.664 109.95
1 40.7745 96.6449 111.462
1 42.6849 92.6257 112.974
1 44.5952 88.6064 114.486
2 57.6122 69.9021 124.568
1 58.8847 65.5758 123.243
1 60.1572 61.2496 121.919
1 61.4296 56.9233 120.594
1 62.7021 52.5971 119.27
2 34.2492 62.0598 115.908
1 38.7113 63.5243 116.095
1 43.1734 64.9888 116.282
1 47.6355 66.4533 116.469
1 52.0976 67.9178 116.656
2 2.84128 78.2494 109.339
1 7.36696 78.8838 110.437
1 11.8926 79.5181 111.535
1 16.4183 80.1525 112.633
1 20.944 80.7869 113.731
2 54.841 61.3471 119.005
1 55.8081 65.8186 117.928
1 56.7752 70.2902 116.851
1 57.7423 74.7617 115.774
1 58.7094 79.2332 114.697
2 21.3066 90.7494 5.68904
1 24.3332 88.5621 2.83509
1 27.3598 86.3747 149.981
1 30.3864 84.1874 147.127
1 33.4131 82 144.273
2 27.828 66.3486 113.567
1 26.2722 62.4379 115.659
1 24.7164 58.5273 117.751
1 23.1606 54.6166 119.843
1 21.6048 50.706 121.935
2 51.6802 97.6001 120.901
1 53.5053 93.3922 119.876
1 55.3305 89.1842 118.85
1 57.1556 84.9762 117.824
1 58.9807 80.7683 116.799
2 0.960198 85.6897 131.92
1 5.5654 86.527 132.346
1 10.1706 87.3644 132.771
1 14.7758 88.2017 133.197
1 19.381 89.039 133.622
2 59.696 61.6362 110.982
1 64.3667 61.1436 111.161
1 69.0373 60.651 111.34
1 73.708 60.1584 111.518
1 78.3787 59.6658 111.697
2 41.8494 92.084 5.38748
1 45.1987 93.781 2.56039
1 48.548 95.4781 149.733
1 51.8972 97.1751 146.906
1 55.2465 98.8721 144.079
2 25.1506 94.4814 106.741
1 29.5576 93.5415 105.405
1 33.9646 92.6015 104.069
1 38.3716 91.6616 102.733
1 42.7786 90.7216 101.397
2 64.2518 62.2683 0.495043
1 63.8421 59.9523 146.426
1 63.4324 57.6362 142.357
1 63.0227 55.3202 138.288
1 62.6129 53.0042 134.218
2 23.956 89.6001 124.772
1 21.9186 91.5524 128.531
1 19.8812 93.5046 132.29
1 17.8438 95.4569 136.049
1 15.8064 97.4091 139.807
2 62.5386 72.5029 140.13
1 62.9192 75.3244 143.87
1 63.2997 78.1459 147.609
1 63.6802 80.9674 1.34884
1 64.0608 83.7888 5.08841
2 33.2593 106.035 108.422
1 34.5894 102 106.412
1 35.9194 97.9654 104.402
1 37.2495 93.9305 102.392
1 38.5796 89.8955 100.382
2 28.8581 94.0815 119.389
1 30.0367 89.937 117.512
1 31.2153 85.7926 115.635
1 32.3939 81.6481 113.757
1 33.5726 77.5036 111.88
2 26.2886 70.7155 121.537
1 29.7778 70.3247 124.662
1 33.2671 69.9338 127.786
1 36.7563 69.543 130.911
1 40.2456 69.1522 134.035
2 7.80416 60.656 118.104
1 12.4896 61.0107 118.208
1 17.1751 61.3654 118.311
1 21.8605 61.7201 118.415
1 26.546 62.0748 118.518
2 51.4166 75.4236 8.03924
1 51.5836 74.3126 3.47549
1 51.7507 73.2016 148.912
1 51.9177 72.0906 144.348
1 52.0847 70.9796 139.784
2 7.44604 100.217 147.165
1 8.56769 99.494 142.658
1 9.68934 98.7706 138.152
1 10.811 98.0473 133.645
1 11.9326 97.3239 129.139
2 63.7577 77.8713 139.902
1 66.6168 80.1189 136.925
1 69.476 82.3665 133.948
1 72.3351 84.6141 130.971
1 75.1943 86.8618 127.994
2 42.4286 90.4215 112.13
1 45.1936 90.3736 108.33
1 47.9586 90.3257 104.529
1 50.7236 90.2778 100.729
1 53.4886 90.23 96.9288
2 66.1637 68.4634 123.537
1 63.9462 72.0454 121.453
1 61.7288 75.6274 119.369
1 59.5113 79.2094 117.285
1 57.2939 82.7914 115.202
2 40.0869 78.6443 138.051
1 44.3839 80.2155 139.126
1 48.681 81.7868 140.202
1 52.9781 83.358 141.277
1 57.2752 84.9292 142.352
2 13.0935 93.1356 127.382
1 17.2505 93.6548 129.513
1 21.4074 94.174 131.643
1 25.5643 94.6931 133.774
1 29.7213 95.2123 135.905
2 70.3654 90.3274 122.982
1 71.8797 86.1861 124.609
1 73.3939 82.0448 126.235
1 74.9082 77.9034 127.862
1 76.4224 73.7621 129.489
2 57.4815 71.8104 110.563
1 60.5554 68.56 109.122
1 63.6292 65.3096 107.681
1 66.703 62.0591 106.24
1 69.7768 58.8087 104.799
2 64.8875 91.5526 112.769
1 68.3289 93.2999 110.087
1 71.7704 95.0471 107.405
1 75.2119 96.7944 104.723
1 78.6533 98.5417 102.041
2 20.7986 61.1129 117.698
1 25.4796 60.6947 117.754
1 30.1607 60.2765 117.809
1 34.8417 59.8584 117.865
1 39.5227 59.4402 117.921
2 29.3953 98.4291 127.086
1 25.4727 95.9131 126.475
1 21.5502 93.3971 125.864
1 17.6276 90.8812 125.253
1 13.705 88.3652 124.642
2 8.47531 116.629 31.0819
1 4.58474 116.796 33.7136
1 0.694173 116.962 36.3453
1 146.804 117.129 38.9769
1 142.913 117.296 41.6086
2 1.19475 143.104 30.1744
1 4.99282 145.844 30.5757
1 8.7909 148.583 30.977
1 12.589 1.32206 31.3782
1 16.387 4.06133 31.7795
2 74.0071 118.564 47.9825
1 70.9391 115.01 47.7596
1 67.8712 111.456 47.5367
1 64.8033 107.903 47.3139
1 61.7353 104.349 47.091
2 149.473 135.405 29.1477
1 0.825235 138.049 25.5045
1 2.17711 140.693 21.8614
1 3.52899 143.337 18.2183
1 4.88086 145.98 14.5751
2 29.9275 134.832 16.1304
1 29.6717 139.329 14.7854
1 29.4159 143.825 13.4403
1 29.1602 148.321 12.0953
1 28.9044 2.81713 10.7503
2 66.8699 138.101 21.5898
1 70.5038 135.791 23.4738
1 74.1378 133.482 25.3578
1 77.7717 131.172 27.2418
1 81.4056 128.862 29.1258
2 21.3977 128.848 34.3386
1 19.7882 129.986 30.0722
1 18.1788 131.125 25.8058
1 16.5694 132.264 21.5393
1 14.9599 133.403 17.2729
2 47.3062 144.43 49.263
1 51.744 145.945 48.9436
1 56.1818 147.459 48.6242
1 60.6196 148.974 48.3047
1 65.0574 0.488403 47.9853
2 149.69 129.219 45.6007
1 4.34244 128.83 45.0601
1 8.99497 128.44 44.5195
1 13.6475 128.051 43.979
1 18.3 127.661 43.4384
2 49.396 127.772 6.34953
1 54.0735 127.44 6.03148
1 58.7509 127.108 5.71342
1 63.4284 126.776 5.39537
1 68.1059 126.444 5.07732
2 35.5353 138.37 23.4982
1 39.5617 135.997 23.9968
1 43.588 133.624 24.4953
1 47.6144 131.252 24.9939
1 51.6407 128.879 25.4924
2 27.1296 133.978 48.7651
1 27.1214 137.814 46.0485
1 27.1132 141.649 43.3318
1 27.105 145.484 40.6151
1 27.0968 149.32 37.8985
2 67.3487 119.353 23.0414
1 64.0762 122.722 22.8723
1 60.8036 126.092 22.7032
1 57.531 129.461 22.5341
1 54.2585 132.83 22.3649
2 4.66267 98.2531 148.938
1 9.05474 99.4404 0.116508
1 13.4468 100.628 1.29542
1 17.8389 101.815 2.47433
1 22.231 103.003 3.65324
2 22.5746 132.524 16.6202
1 22.3494 137.077 15.4737
1 22.1242 141.629 14.3273
1 21.899 146.182 13.1808
1 21.6738 0.734263 12.0343
2 34.7417 126.488 13.0806
1 30.0747 126.776 13.5562
1 25.4077 127.064 14.0319
1 20.7407 127.352 14.5076
1 16.0737 127.64 14.9832
2 71.8247 127.161 17.323
1 71.0757 129.692 21.2117
1 70.3268 132.223 25.1005
1 69.5778 134.754 28.9892
1 68.8289 137.285 32.878
2 48.2552 105.651 0.473131
1 44.4305 108.106 1.67094
1 40.6057 110.561 2.86875
1 36.781 113.016 4.06655
1 32.9563 115.471 5.26436
2 69.672 146.521 46.9709
1 67.3445 143.429 44.3042
1 65.017 140.337 41.6375
1 62.6895 137.245 38.9709
1 60.362 134.153 36.3042
2 51.4253 146.507 4.02853
1 55.0439 143.961 5.6138
1 58.6625 141.415 7.19908
1 62.2812 138.869 8.78435
1 65.8998 136.323 10.3696
2 58.5813 129.443 47.3782
1 63.0214 128.004 46.8249
1 67.4616 126.566 46.2716
1 71.9017 125.128 45.7183
1 76.3419 123.689 45.1649
2 20.2049 121.276 32.2918
1 21.6908 125.527 33.6375
1 23.1766 129.778 34.9831
1 24.6625 134.029 36.3288
1 26.1484 138.28 37.6744
2 30.1786 116.248 42.4949
1 34.665 116.713 43.8165
1 39.1514 117.177 45.1381
1 43.6377 117.642 46.4598
1 48.1241 118.106 47.7814
2 3.4585 138.319 16.1126
1 8.12799 137.85 15.8558
1 12.7975 137.381 15.599
1 17.467 136.912 15.3423
1 22.1365 136.443 15.0855
2 37.3347 109.763 21.8882
1 37.5514 113.799 19.4906
1 37.7681 117.836 17.093
1 37.9847 121.872 14.6953
1 38.2014 125.909 12.2977
2 67.8122 112.017 33.1255
1 68.1451 111.335 37.7638
1 68.4781 110.653 42.4021
1 68.811 109.971 47.0404
1 69.1439 109.289 51.6787
2 8.14131 104.375 26.7688
1 6.55947 106.75 30.5029
1 4.97764 109.126 34.237
1 3.3958 111.502 37.9712
1 1.81396 113.878 41.7053
2 7.90153 107.483 42.0289
1 4.72616 110.768 40.9263
1 1.55079 114.053 39.8237
1 148.375 117.338 38.7211
1 145.2 120.623 37.6186
2 141.885 134.644 31.5449
1 146.509 134.915 30.7457
1 1.13257 135.187 29.9466
1 5.75619 135.458 29.1474
1 10.3798 135.729 28.3482
2 78.1995 126.895 21.121
1 75.6464 128.689 24.6357
1 73.0934 130.483 28.1503
1 70.5403 132.277 31.665
1 67.9873 134.071 35.1796
2 145.437 134.612 47.7149
1 149.557 135.672 45.7158
1 3.67625 136.731 43.7168
1 7.79589 137.791 41.7178
1 11.9155 138.85 39.7188
2 22.2285 143.473 7.51044
1 26.4603 141.984 6.10824
1 30.692 140.495 4.70604
1 34.9237 139.007 3.30385
1 39.1555 137.518 1.90165
2 60.3129 127.489 146.55
1 56.2342 127.535 148.885
1 52.1555 127.581 1.21959
1 48.0768 127.627 3.55459
1 43.9981 127.673 5.8896
2 60.8337 145.002 18.2413
1 64.349 144.681 15.1382
1 67.8642 144.36 12.035
1 71.3795 144.039 8.93179
1 74.8948 143.718 5.8286
2 66.5504 116.161 23.2447
1 63.641 115.414 26.8597
1 60.7315 114.668 30.4748
1 57.8221 113.922 34.0898
1 54.9127 113.176 37.7048
2 44.5466 139.428 24.1247
1 46.4595 142.707 26.8958
1 48.3725 145.986 29.6669
1 50.2854 149.265 32.4381
1 52.1983 2.54346 35.2092
2 141.31 108.523 50.4715
1 145.935 108.794 49.6799
1 0.55983 109.065 48.8882
1 5.18477 109.335 48.0966
1 9.80971 109.606 47.3049
2 31.0946 114.432 89.3922
1 35.7833 114.226 89.6441
1 40.4721 114.02 89.8961
1 45.1608 113.814 90.148
1 49.8495 113.609 90.3999
2 51.5505 109.555 94.7023
1 50.6251 106.607 91.161
1 49.6997 103.658 87.6196
1 48.7744 100.71 84.0783
1 47.849 97.7617 80.537
2 68.239 120.464 82.2665
1 71.322 122.717 79.5265
1 74.405 124.97 76.7864
1 77.488 127.224 74.0464
1 80.571 129.477 71.3064
2 73.1612 0.149904 93.9384
1 70.3788 146.767 95.6421
1 67.5964 143.384 97.3458
1 64.8141 140 99.0495
1 62.0317 136.617 100.753
2 67.6128 119.695 60.9458
1 68.1483 118.41 65.4348
1 68.6837 117.125 69.9239
1 69.2191 115.84 74.4129
1 69.7546 114.555 78.902
2 27.1047 106.898 84.9828
1 29.0672 111.169 84.9531
1 31.0297 115.439 84.9234
1 32.9921 119.71 84.8937
1 34.9546 123.98 84.8639
2 18.3817 135.406 59.5793
1 22.3589 133.735 57.7141
1 26.3362 132.064 55.8488
1 30.3134 130.393 53.9835
1 34.2906 128.722 52.1182
2 10.2991 144.72 70.3716
1 13.5118 141.526 71.6211
1 16.7245 138.331 72.8706