ITEM: TIMESTEP
25000
ITEM: NUMBER OF ATOMS
4501
ITEM: BOX BOUNDS pp pp pp
0.0000000000000000e+00 1.5000000000000000e+02
0.0000000000000000e+00 1.5000000000000000e+02
0.0000000000000000e+00 1.5000000000000000e+02
ITEM: ATOMS type x y z
4 75 75 75
2 5.6589 124.741 62.464
1 1.81158 127.314 62.1376
1 149.002 129.176 65.3626
1 146.155 129.307 68.9635
1 144.031 127.512 72.4758
2 17.1519 33.4806 15.5094
1 21.2787 31.8989 13.5354
1 25.3224 30.3892 11.5971
1 27.251 29.1793 7.09051
1 27.1053 29.1145 2.67981
2 142.594 143.606 97.4314
1 140.014 145.697 101.107
1 135.957 146.746 103.151
1 131.376 146.673 102.879
1 128.353 146.96 99.2627
2 64.7637 52.9039 32.9897
1 64.5639 51.9384 28.5664
1 63.2132 51.7182 24.0074
1 63.3206 51.8717 18.8219
1 64.2182 49.2283 14.5154
2 60.4937 87.1874 147.591
1 60.3216 91.5233 147.104
1 60.7636 94.6074 0.356559
1 56.8506 95.146 3.68817
1 53.5372 97.082 7.06892
2 17.8707 53.3362 12.4202
1 18.5945 49.1804 14.0209
1 20.3401 47.7126 17.7324
1 21.2779 44.5136 21.4119
1 22.6292 44.4767 25.8548
2 124.165 17.6721 140.253
1 122.522 16.9545 135.693
1 119.546 15.7473 131.956
1 116.567 12.5193 130.779
1 115.845 7.90357 131.645
2 31.9049 30.427 23.5474
1 36.7567 30.6518 26.0771
1 37.0895 30.903 30.9623
1 36.5068 31.8305 35.4001
1 39.0203 33.1718 39.6027
2 110.382 146.746 54.5887
1 114.424 145.789 56.8953
1 114.502 143.93 60.911
1 114.141 140.523 64.3362
1 114.848 136.296 66.7272
2 7.05016 31.9642 18.5555
1 9.86769 30.64 22.5709
1 10.8409 26.4558 24.6987
1 10.8973 25.0722 28.8969
1 10.0554 26.3564 33.4234
2 24.4131 22.0826 59.7973
1 21.8037 25.6186 62.3272
1 22.9414 29.0963 64.3849
1 24.1337 31.0858 68.632
1 28.0769 32.1471 70.7666
2 66.1654 49.5464 78.3868
1 62.7177 46.3604 77.695
1 59.9593 44.7644 74.0969
1 57.7481 40.4415 73.2484
1 55.6186 37.8113 76.4708
2 16.9511 51.4334 60.6424
1 20.1021 54.5704 58.4708
1 23.043 54.7504 54.6041
1 25.687 56.5161 50.9982
1 26.8509 60.4858 48.6487
2 66.7779 25.9457 46.9915
1 68.1345 22.1422 49.6675
1 67.3843 19.5519 52.9533
1 69.521 18.7467 57.2061
1 73.9338 20.5701 58.0868
2 146.941 26.406 75.6841
1 146.838 26.6603 71.1874
1 146.934 29.2639 66.7383
1 149.979 31.1121 63.058
1 149.266 32.9886 59.3324
2 47.1927 24.8386 57.8818
1 45.5579 29.5998 58.2684
1 46.6267 33.9141 57.9547
1 50.2035 35.745 56.8692
1 53.6169 39.5946 56.6586
2 22.5026 2.04988 33.1851
1 22.4442 147.434 34.3723
1 21.6858 145.352 38.1456
1 19.8952 146.075 42.6949
1 19.6485 147.12 47.6407
2 79.3578 46.8649 34.7267
1 81.8199 45.0586 31.2058
1 83.6907 45.1874 26.9492
1 88.4514 43.7301 25.4759
1 90.7549 40.9372 22.5576
2 25.8183 10.9584 12.8083
1 25.6831 6.41937 14.0824
1 22.9951 4.31709 17.5908
1 20.0003 3.9588 20.9508
1 15.6303 2.03345 22.742
2 57.2313 91.9433 32.7282
1 54.5045 88.9031 34.8978
1 52.1205 86.2575 38.0625
1 50.6755 83.1795 41.0722
1 51.1738 80.4164 44.5055
2 29.0995 60.2541 135.93
1 33.6949 58.1695 135.76
1 36.4218 58.2709 139.568
1 39.729 59.9633 142.91
1 43.2832 59.0122 145.374
2 40.4985 10.7876 15.6822
1 41.2442 14.2574 19.2901
1 41.9203 18.8502 20.9078
1 40.5716 23.6959 20.4285
1 41.3034 27.455 18.0349
2 148.162 85.5743 146.992
1 149.482 81.7768 149.237
1 1.26762 79.2993 2.93049
1 2.9978 75.132 2.79543
1 3.43192 70.2136 2.97694
2 49.9875 13.97 42.1143
1 52.5086 10.2293 43.2559
1 51.5636 6.31949 45.1189
1 55.365 3.91505 46.8573
1 55.9528 149.838 48.6198
2 149.184 140.643 63.688
1 147.358 143.285 61.0457
1 147.082 148.199 59.996
1 146.799 2.03473 62.5704
1 149.184 5.00255 65.0315
2 56.2899 22.3212 43.2954
1 60.4239 20.2126 43.9594
1 63.0911 16.2527 45.0807
1 66.3932 12.9525 45.1144
1 69.2478 9.92234 42.7477
2 32.4431 130.349 18.6572
1 37.0197 130.308 19.2742
1 40.5361 128.758 21.8292
1 40.8308 125.132 23.963
1 40.2348 121.822 27.2784
2 13.8488 0.151075 80.9977
1 9.63845 148.201 80.9515
1 7.06459 143.925 80.8266
1 2.44769 144.957 80.9786
1 148.436 143.723 79.6871
2 53.7221 148.379 129.336
1 51.8877 2.71883 131.014
1 50.2186 5.76991 134.768
1 50.1362 8.29271 139.268
1 48.6867 12.4521 141.243
2 19.6954 136.522 8.28016
1 15.0548 136.605 6.49142
1 12.9318 137.857 2.92067
1 13.4395 138.179 148.073
1 11.0511 136.696 144.312
2 4.33762 56.4615 30.6499
1 8.10074 53.8411 32.68
1 11.4697 53.8151 36.1417
1 13.2405 50.7108 38.278
1 12.4806 45.886 38.0199
2 5.85161 11.8344 35.0738
1 2.6656 9.75295 32.6935
1 148.53 8.68807 31.7654
1 146.164 5.51953 29.6953
1 146.086 1.78236 27.0054
2 22.3994 13.7144 9.41253
1 26.4603 13.782 6.62396
1 29.7796 16.8108 5.28385
1 33.5729 19.3823 6.59425
1 36.8503 21.8236 5.92627
2 72.8467 24.4281 31.3867
1 72.8995 21.1941 28.0384
1 70.6072 17.9528 25.3604
1 71.8044 15.2484 21.4945
1 72.0005 12.5444 17.8651
2 0.232832 121.47 30.9322
1 4.3981 122.362 28.5994
1 7.84341 124.045 25.4939
1 8.72568 125.025 21.393
1 7.66743 125.477 16.8038
2 44.0008 61.9845 138.888
1 45.2402 62.2834 134.128
1 46.3996 64.2642 129.82
1 49.182 65.7198 126.534
1 52.7893 66.2026 122.906
2 48.3518 138.641 60.2905
1 43.1308 138.304 61.565
1 38.8364 139.525 62.316
1 34.612 138.078 63.1055
1 31.5691 134.671 61.9129
2 82.3722 53.702 11.9196
1 81.9997 53.882 7.15095
1 80.2317 50.9829 3.64499
1 76.0464 50.6206 1.88439
1 73.566 46.8931 0.139296
2 9.61362 24.4257 94.3933
1 10.0476 20.425 91.8743
1 6.27475 18.7677 89.0874
1 4.83769 14.5857 87.5894
1 3.80171 10.4218 85.6377
2 46.3576 3.79183 136.131
1 46.3299 8.573 134.709
1 48.2556 12.7472 132.996
1 51.2999 14.1271 130.16
1 54.1029 18.2263 127.92
2 20.4234 42.1928 138.769
1 18.2213 38.62 141.462
1 18.0492 34.3473 142.579
1 14.2869 32.1398 145.238
1 13.3441 27.9024 146.931
2 88.5316 60.1966 41.8779
1 85.6013 63.3207 39.6221
1 85.5845 67.3936 36.8097
1 88.1833 71.044 37.2273
1 88.5839 75.2845 38.772
2 54.8677 20.6995 48.9971
1 52.3344 16.9011 50.2989
1 49.3045 13.5099 49.936
1 45.0261 11.8886 48.849
1 41.4341 10.2301 51.8356
2 72.5159 38.7693 76.3844
1 74.1422 35.7097 73.5684
1 77.8118 34.8401 70.4268
1 79.702 31.1804 68.3755
1 82.6121 28.6863 65.9669
2 97.3759 33.0141 140.242
1 92.2687 32.8406 139.903
1 88.2012 30.9649 139.661
1 85.761 28.1171 142.501
1 83.5465 24.7034 144.156
2 100.295 42.373 124.635
1 104.152 42.4672 122.638
1 107.658 41.8499 119.676
1 111.021 43.7303 117.021
1 115.176 45.4495 115.294
2 3.31452 9.56487 141.649
1 2.13269 5.65457 138.784
1 147.886 4.48182 136.057
1 143.394 2.96002 134.898
1 139.503 1.62149 132.91
2 34.0963 59.1334 25.7441
1 34.9539 56.244 22.8698
1 37.9209 54.4192 20.0973
1 38.2719 50.1912 18.3752
1 40.9216 47.5689 15.6767
2 46.2259 46.154 22.1682
1 44.8515 50.8371 22.0115
1 44.1698 55.589 21.3674
1 42.9513 60.3954 19.7321
1 39.4327 63.4588 18.3004
2 12.9154 148.122 5.14321
1 14.8576 146.161 0.826431
1 20.0063 145.259 149.152
1 23.9308 143.203 0.543254
1 27.1651 140.234 1.19359
2 60.9627 52.0589 75.7297
1 57.1165 49.5903 74.5945
1 55.1449 46.0344 72.8603
1 53.2784 41.781 72.6701
1 53.4658 37.6902 72.0001
2 11.8678 41.6488 50.8019
1 8.36822 40.2985 48.1433
1 6.74182 43.0989 45.0202
1 9.04238 46.7772 42.7208
1 6.80237 50.021 41.127
2 92.3283 80.7726 54.9458
1 92.4675 76.3408 54.7311
1 93.7821 72.3406 52.2896
1 93.8678 68.8929 49.6108
1 95.9616 68.7556 45.2075
2 67.8014 48.8551 73.7372
1 68.7919 44.7124 75.8007
1 67.7629 42.2989 79.5641
1 64.3147 39.2448 81.7837
1 59.689 37.2381 82.1516
2 50.1012 64.2918 78.4446
1 46.746 63.5647 81.9737
1 43.8855 65.4907 84.5944
1 40.3648 67.1996 87.9351
1 35.9389 65.6759 88.7008
2 56.2259 106.864 124.184
1 58.6312 102.802 124.611
1 62.8423 101.029 122.578
1 63.8315 101.947 118.287
1 64.0153 105.142 115.248
2 44.2829 8.70238 123.46
1 46.3768 7.48661 127.27
1 49.939 8.65708 130.762
1 52.6243 10.2532 134.291
1 52.2992 14.2675 137.14
2 4.68263 61.503 119.536
1 3.67133 62.7553 114.976
1 2.65325 66.5786 112.382
1 2.21179 70.808 109.812
1 3.6119 74.9021 107.526
2 17.1244 7.1172 67.8412
1 13.2897 5.50644 69.8605
1 10.2253 2.60412 71.622
1 6.34502 1.87755 74.4072
1 2.36042 149.77 75.4365
2 35.8793 59.4767 78.3739
1 32.5884 62.4786 79.9943
1 33.1937 66.9241 81.6626
1 33.6685 70.0751 85.183
1 33.2118 73.7539 87.9557
2 22.4331 6.91374 81.6593
1 20.0533 10.9654 81.2309
1 17.7102 15.154 81.2219
1 19.5851 19.3083 80.781
1 18.9141 22.7473 78.4943
2 22.888 29.4507 93.7984
1 23.7702 29.8589 89.3674
1 24.9064 29.6411 84.8924
1 28.8879 29.7211 82.1339
1 30.9745 28.8049 77.8202
2 26.2661 72.294 70.3866
1 25.0277 69.9897 66.2648
1 26.318 69.4279 61.6126
1 27.5742 66.8245 57.7052
1 27.269 62.9264 54.6956
2 45.588 5.77363 55.7749
1 50.0039 6.0846 53.7861
1 54.4152 7.51191 53.8823
1 59.0344 5.6436 52.5517
1 63.4197 3.56281 51.1374
2 79.1387 56.4113 94.3501
1 82.4069 58.3213 97.2131
1 83.4125 59.483 102.123
1 85.396 61.5528 105.652
1 85.0705 66.0891 106.365
2 56.429 148.707 91.2833
1 54.6746 146.016 95.0415
1 57.0881 142.309 97.6551
1 58.4974 143.282 101.354
1 59.9535 146.122 105.199
2 41.0538 42.6021 98.6206
1 44.895 44.5868 97.8996
1 49.0209 45.0349 94.9813
1 51.7774 45.252 91.071
1 55.8371 46.8823 88.8357
2 85.9021 2.02564 119.871
1 85.7468 5.96681 118.032
1 86.6992 9.88427 115.438
1 84.6496 11.8946 111.799
1 85.2308 14.684 108.4
2 48.0479 5.50629 76.0106
1 47.6958 5.53278 80.9164
1 44.8989 4.3178 84.2118
1 44.2682 0.0666252 86.2571
1 41.3818 146.768 84.7902
2 40.367 22.0267 93.9043
1 42.5338 18.207 92.2812
1 46.0729 16.3518 90.5654
1 49.8342 14.2959 87.824
1 53.4694 15.3523 85.1538
2 53.6545 59.471 47.9797
1 54.02 56.4712 52.051
1 51.4735 54.5776 55.3425
1 47.0984 55.3473 57.4551
1 43.325 53.5271 59.925
2 51.1262 37.2331 82.5558
1 47.4813 39.7107 80.8339
1 45.7616 40.5848 76.4341
1 43.7876 44.9595 74.7101
1 42.5165 49.0237 72.4519
2 149.047 146.667 97.2606
1 144.809 148.038 96.3554
1 142.426 1.09043 94.0605
1 140.181 4.4065 91.744
1 135.736 6.06815 93.1694
2 25.3284 23.2453 64.6542
1 28.8124 20.4387 63.3634
1 30.8274 16.6821 61.8339
1 31.3514 15.5746 57.0844
1 31.792 11.9637 54.944
2 9.01672 20.3259 36.0682
1 9.60729 19.4734 40.8533
1 6.70255 20.4905 44.448
1 3.22918 17.9301 43.0694
1 1.1568 13.9699 44.3986
2 23.6272 68.4273 77.0434
1 24.2243 64.118 79.2352
1 27.5552 60.3053 79.9335
1 25.575 56.168 79.4563
1 21.625 54.8843 78.516
2 64.077 51.4904 83.3194
1 62.517 47.6324 85.7324
1 62.1442 46.3185 90.0626
1 61.1289 44.0493 94.543
1 59.3678 40.4052 97.471
2 27.9265 83.334 65.5748
1 32.6612 81.9536 67.2536
1 36.0347 79.9433 70.5224
1 39.5227 81.7276 73.717
1 43.8466 83.5838 74.6681
2 11.8836 28.66 127.035
1 8.56827 26.7271 130.194
1 5.3671 26.1485 133.631
1 5.22082 28.0066 138.079
1 8.2735 29.7591 141.018
2 49.0769 139.582 79.9535
1 49.797 141.422 84.4699
1 52.211 143.102 87.9224
1 51.7518 147.605 89.6623
1 49.1091 1.5175 89.693
2 84.8429 49.994 77.0423
1 84.3051 47.3281 80.3737
1 86.6434 43.5608 82.9315
1 88.8839 39.6334 83.7038
1 89.5623 35.2145 84.7539
2 148.508 4.55138 80.7624
1 146.027 8.10365 79.2966
1 144.019 12.3173 79.3418
1 142.643 16.2223 79.7334
1 141.197 19.5757 77.1746
2 80.3265 15.1975 86.4931
1 79.5589 12.3479 82.805
1 77.183 9.71782 79.4569
1 76.9256 7.45755 75.2891
1 74.8817 8.6229 71.3474
2 54.3666 142.638 108.577
1 52.8137 142.575 104.392
1 51.9702 146.01 101.879
1 53.0338 0.598825 102.557
1 55.8103 4.49186 104.094
2 26.7161 27.4946 61.5674
1 31.1198 28.8933 61.4508
1 35.7681 29.3898 62.149
1 37.1159 32.6336 64.6754
1 38.9955 35.958 66.8708
2 31.9722 29.5682 34.3125
1 33.7386 27.5977 30.6471
1 30.89 26.386 27.2388
1 27.2972 27.9698 24.8358
1 22.9694 29.4613 23.5318
2 145.14 1.51915 51.2584
1 149.359 1.68711 53.9478
1 1.00019 4.35126 57.9808
1 149.511 7.56098 60.4723
1 0.0148654 10.2639 63.6528
2 68.6309 16.296 49.5876
1 71.7624 16.4828 46.4492
1 76.5903 16.6696 44.7154
1 79.5239 19.7513 42.7632
1 81.5524 22.7944 40.1402
2 42.1121 121.524 52.4418
1 45.0397 124.871 50.8425
1 47.7497 128.146 52.3069
1 52.0244 130.372 52.4605
1 54.1406 132.312 56.0629
2 30.1937 22.3603 49.0421
1 28.5517 21.0773 52.8552
1 25.0471 18.2373 53.4752
1 22.9022 18.109 57.705
1 19.2358 17.8652 60.8829
2 102.438 108.785 34.9093
1 100.668 104.73 33.6374
1 99.0367 100.298 34.3478
1 98.8434 95.6222 35.7455
1 100.385 90.7949 35.2557
2 79.521 125.755 124.703
1 75.1339 125.252 122.787
1 71.909 122.785 120.527
1 68.4788 121.409 117.503
1 63.9963 120.443 115.554
2 54.2526 66.218 59.5626
1 50.6491 65.1969 57.1683
1 46.6756 67.5517 56.6179
1 43.3789 70.8149 54.2309
1 41.6849 74.5733 51.639
2 63.4865 55.382 60.3734
1 63.9749 53.9734 55.7669
1 65.0971 52.6261 51.6785
1 65.8808 51.103 47.7228
1 69.3009 50.9919 44.5906
2 73.9567 149.903 32.5707
1 75.4284 146.819 29.1751
1 79.9941 145.803 27.6965
1 82.5967 145.062 24.5247
1 87.4514 145.651 24.6101
2 54.9618 42.5992 16.3594
1 58.9244 42.2724 18.9911
1 60.9938 39.143 22.1799
1 61.8511 36.164 25.7573
1 61.6941 32.1192 27.5305
2 68.3273 15.5574 146.864
1 67.0435 17.3495 143.339
1 65.9366 18.7695 139.017
1 64.8505 22.1485 136.081
1 65.9123 25.9358 133.78
2 34.9319 27.6687 18.6376
1 37.018 28.3831 14.702
1 40.0576 25.4489 12.6479
1 43.1739 28.3244 10.6286
1 42.3634 30.3291 6.36006
2 68.5598 50.1713 83.1172
1 67.8126 46.3329 85.652
1 69.263 41.9509 88.2052
1 71.0524 40.6051 92.326
1 75.2963 39.9052 93.1397
2 29.7907 16.6253 141.99
1 32.1993 13.1159 140.527
1 33.5448 8.60788 140.369
1 31.8506 4.53881 141.539
1 33.1974 2.27227 145.184
2 56.0656 149.078 148.591
1 54.1137 0.345894 2.60899
1 55.2617 2.87037 6.13229
1 57.1999 5.6106 9.42061
1 60.7183 6.305 11.6654
2 22.34 19.9681 113.982
1 24.7596 21.899 117.433
1 25.9159 24.0231 121.249
1 26.7685 24.8409 125.698
1 28.2865 27.4529 129.54
2 53.7159 21.5582 96.4165
1 50.2216 23.9985 94.3411
1 45.8559 25.3475 93.7567
1 41.9827 26.5965 92.2125
1 40.6357 26.8306 87.8607
2 54.6601 117.889 135.397
1 55.4765 122.455 137.864
1 56.4087 126.852 136.257
1 54.3726 131.067 136.565
1 49.7084 131.791 135.96
2 2.73221 36.9337 134.929
1 4.9662 41.2833 134.85
1 5.54439 45.5434 132.702
1 5.70264 48.7845 129.008
1 4.00986 52.2014 125.683
2 72.0313 23.0492 131.347
1 72.1428 19.1105 128.353
1 72.9644 14.3192 128.885
1 71.9667 9.89417 130.493
1 74.5444 6.29377 132.638
2 78.5234 62.1617 98.4235
1 80.2047 66.6532 99.3978
1 83.5692 69.2537 102
1 87.1968 71.9193 103.679
1 87.0285 75.5159 106.534
2 50.9655 11.0795 0.450528
1 47.1956 12.0465 2.56472
1 42.177 11.844 3.79311
1 38.3668 12.4212 7.01553
1 34.959 13.0111 10.1628
2 9.21233 31.513 148.607
1 13.226 32.3136 0.286719
1 15.8149 35.7838 2.58747
1 15.7438 40.4471 3.93321
1 16.4031 44.6015 6.22514
2 35.965 53.7763 136.701
1 35.5855 53.8212 141.207
1 34.9367 51.5002 145.551
1 34.1539 48.416 149.485
1 32.8707 44.0268 0.461372
2 31.7883 46.0723 25.4772
1 27.8416 48.3009 26.8614
1 25.147 51.8701 27.2954
1 25.7849 54.7134 30.5479
1 27.4575 57.4249 33.9106
2 40.3967 48.4438 137.157
1 45.0855 48.5277 136.378
1 48.1102 51.3363 133.949
1 52.0617 52.6947 131.852
1 56.7207 54.7413 132.525
2 77.9021 29.4775 18.5682
1 82.4049 31.482 19.9689
1 85.7626 34.4159 19.0355
1 86.2578 39.1568 16.9247
1 85.7139 44.1575 18.0822
2 81.2836 51.35 86.08
1 85.1765 49.1735 85.0132
1 89.0391 46.8844 85.194
1 93.6233 45.6721 87.0339
1 96.6122 43.88 90.2519
2 4.48521 22.0451 142.565
1 5.16717 26.091 143.119
1 4.93016 30.0807 145.847
1 5.72963 35.01 146.623
1 5.08607 38.2395 0.565937
2 42.4923 54.5769 113.178
1 42.9726 58.2733 115.484
1 42.0323 61.7192 118.476
1 38.1069 63.1631 120.045
1 33.6811 63.3266 122.138
2 51.5148 63.1847 116.635
1 52.9137 60.6483 120.309
1 53.4691 58.2923 124.356
1 51.7 54.1447 124.487
1 48.5145 51.0017 124.843
2 60.3808 32.3247 144.639
1 59.5712 35.6089 142.046
1 55.4746 36.2429 139.201
1 52.325 32.4029 138.475
1 50.2104 30.0035 135.186
2 6.99161 4.83415 10.1088
1 8.95398 4.34367 14.3604
1 10.5442 0.949047 17.3361
1 11.1334 146.811 17.2536
1 8.35233 143.022 16.6548
2 97.848 48.2839 142.189
1 94.1375 48.7695 145.216
1 93.5825 48.8446 0.17396
1 95.0418 52.6723 2.5215
1 95.3206 56.4796 4.42067
2 3.6084 20.2351 93.564
1 4.50483 15.4269 92.2444
1 1.13396 12.4719 90.2319
1 148.17 9.69611 87.6615
1 144.897 7.02646 88.6913
2 85.3629 142.297 110.362
1 86.2756 138.92 106.296
1 89.59 137.82 102.76
1 94.0804 138.309 101.097
1 98.4396 137.851 100.251
2 59.107 27.8856 70.1171
1 60.3894 28.6973 74.5445
1 64.0906 27.6145 77.9197
1 66.8511 30.624 81.3491
1 67.8135 34.7787 83.7026
2 12.425 26.7308 109.462
1 9.69056 26.2717 113.522
1 6.0568 27.8725 115.842
1 1.84335 27.9027 118.196
1 0.547624 28.7379 122.847
2 47.0683 32.0022 47.3691
1 49.8909 31.0154 50.9766
1 54.0915 30.3203 51.944
1 57.1377 31.5972 55.3385
1 59.4717 33.6175 59.1413
2 122.004 149.548 14.6194
1 126.163 1.4727 12.7841
1 128.577 2.66962 8.31195
1 132.438 2.69216 6.46157
1 136.795 4.17683 5.12561
2 134.631 11.946 125.623
1 135.516 7.22664 126.074
1 136.856 2.70208 127.24
1 136.187 148.419 129.148
1 137.164 143.603 130.533
2 141.101 28.2753 140.169
1 145.214 26.4138 140.718
1 149.016 25.776 138.484
1 2.73129 23.5694 137.511
1 4.95356 19.7398 138.115
2 84.0699 44.5864 10.1544
1 81.2867 47.4726 8.41633
1 77.7122 49.2332 6.69628
1 73.4983 51.2879 6.27316
1 71.9324 53.5894 2.83948
2 50.3769 16.2322 22.2457
1 53.7992 19.7296 21.0112
1 55.5425 22.7309 17.7705
1 56.0006 23.1782 13.0979
1 53.2168 23.8646 9.83369
2 68.8595 47.9982 132.021
1 66.0309 45.1136 134.646
1 64.812 41.8097 137.371
1 65.0424 41.3774 142.002
1 61.4926 39.5199 144.354
2 95.717 58.9281 133.92
1 97.563 63.1853 134.939
1 97.2275 66.7486 138.077
1 99.451 70.2233 140.512
1 99.7818 73.7699 143.592
2 77.2481 50.4205 100.298
1 79.8161 45.9075 100.701
1 83.1029 43.7012 103.097
1 87.0274 40.9308 102.225
1 90.4584 40.1194 99.0446
2 36.5865 42.8039 121.879
1 39.3542 45.5475 124.911
1 42.2047 45.194 128.016
1 44.7626 46.4525 131.849
1 49.4306 46.934 132.323
2 84.2768 38.477 126.125
1 85.3522 41.561 123.505
1 87.1212 41.9259 119.272
1 91.7152 41.4061 118.175
1 95.4319 40.277 116.22
2 90.415 143.906 134.002
1 86.2189 146.605 133.738
1 83.9132 1.03357 133.712
1 79.0324 2.95891 133.743
1 75.5682 2.0386 136.475
2 9.23607 141.852 117.245
1 9.50677 138.676 120.769
1 7.87534 136.13 124.682
1 7.34314 133.016 129.002
1 7.07066 129.082 131.529
2 3.68555 136.181 92.0554
1 4.25435 137.893 96.6038
1 6.45855 139.262 100.991
1 10.6491 138.913 104.447
1 11.7422 137.337 109.491
2 132.514 111.894 78.7549
1 133.797 110.785 83.1861
1 133.824 110.431 87.694
1 130.657 108.346 90.6961
1 129.291 107.732 94.9201
2 50.9442 99.5635 81.9744
1 46.7546 98.4675 84.0506
1 42.8547 98.694 87.1527
1 40.0157 97.079 90.4895
1 37.3387 96.3475 93.661
2 117.888 97.3119 140.845
1 114.269 94.794 139.267
1 110.189 93.2803 137.999
1 105.736 93.2026 137.278
1 101.418 92.7521 135.748
2 88.0304 92.4982 32.7132
1 85.6818 91.9432 28.7769
1 84.023 94.0792 24.7095
1 84.8754 95.3792 20.2279
1 85.0556 93.0384 15.7543
2 142.243 94.4706 40.8639
1 145.802 97.2589 40.7895
1 147.855 98.6902 36.6862
1 149.38 97.6975 31.9497
1 2.63021 95.5999 29.5833
2 41.3502 40.7964 145.846
1 40.5279 41.2553 0.565282
1 42.8329 43.7799 4.1712
1 45.8216 44.9931 7.47115
1 45.6581 46.9881 11.783
2 8.90083 85.0647 7.79975
1 12.4873 85.3953 10.5003
1 15.0388 84.715 14.0832
1 18.9091 82.3471 16.0569
1 22.9697 80.9545 14.1218
2 20.5806 60.7586 49.0279
1 20.0797 65.3062 48.3767
1 21.1511 69.5858 50.3415
1 20.63 73.2303 52.5893
1 20.7444 76.36 56.193
2 11.9352 24.38 11.5151
1 10.4628 28.4778 9.42644
1 12.5991 33.1257 9.96909
1 14.0497 37.605 11.4955
1 14.2777 40.9262 8.47038
2 29.6745 53.0448 39.2599
1 29.6669 51.0786 43.5369
1 27.0937 47.5084 44.852
1 25.3816 42.9777 43.3062
1 21.9447 40.813 45.2259
2 45.5598 85.5788 128.814
1 48.3907 86.1535 125.028
1 48.8821 89.7483 121.644
1 49.0194 90.8933 116.955
1 51.5212 89.8347 112.582
2 77.5255 99.2178 23.5057
1 78.8753 102.348 21.2765
1 76.9182 105.064 17.5979
1 75.6058 108.291 14.1135
1 74.1657 109.033 9.80397
2 13.2331 104.862 18.3424
1 10.5281 103.909 14.8364
1 6.89528 105.679 12.9289
1 5.46691 105.79 8.26469
1 1.88041 103.418 5.92293
2 52.5576 77.1467 60.0636
1 49.5015 76.5804 56.7186
1 46.3512 79.3537 53.6631
1 44.8042 82.6398 50.2714
1 42.7237 86.6778 50.5019
2 89.9867 64.1724 5.70357
1 85.0929 63.0171 5.7463
1 80.8393 61.2234 4.17712
1 77.5388 59.6482 1.71679
1 73.2406 59.2423 149.631
2 45.0039 37.2812 45.7265
1 43.2526 40.6526 43.531
1 39.861 42.8815 41.8273
1 36.3717 46.4646 42.0215
1 33.4634 49.6372 39.3125
2 140.312 102.158 138.288
1 141.476 97.898 137.198
1 140.403 94.4489 134.287
1 139.7 89.4074 133.282
1 138.192 85.9263 135.673
2 17.7264 63.7152 100.931
1 20.8812 60.76 100.044
1 22.6089 57.7966 103.737
1 21.8446 53.6633 104.935
1 22.5218 50.5602 108.174
2 50.1327 54.6408 10.6813
1 50.8709 56.5331 14.4601
1 52.7028 56.6512 18.7735
1 51.6384 56.8718 23.4152
1 50.1915 55.5891 27.4179
2 61.719 72.1027 27.6097
1 58.8084 75.3823 28.6921
1 54.2576 76.2341 27.6496
1 50.2189 77.5281 29.1335
1 46.7266 80.946 28.9598
2 67.3899 58.6911 54.7902
1 65.7223 57.916 50.5471
1 64.545 55.4276 46.8927
1 63.8456 52.5857 43.51
1 63.7817 48.2762 42.7294
2 43.4661 136.29 24.0795
1 39.9096 137.056 26.489
1 36.814 135.652 29.5758
1 32.6989 134.729 31.0686
1 28.7257 135.244 28.5804
2 29.9238 20.3564 0.0928069
1 31.0878 24.3714 2.50994
1 33.5322 28.68 2.99379
1 32.5771 33.2119 2.69898
1 31.8175 38.0586 2.0511
2 28.5728 94.2432 134.671
1 25.3605 96.0622 137.826
1 21.62 98.4863 138.801
1 20.7141 103.267 138.171
1 21.0024 107.852 137.53
2 38.9187 51.4508 68.4602
1 40.5948 54.4164 71.2235
1 39.0411 54.6682 75.7479
1 40.8041 56.091 79.3176
1 40.4369 55.1647 83.4177
2 66.9984 55.0713 0.0129121
1 66.3907 57.1763 3.96595
1 62.9567 60.3628 5.72073
1 59.3449 62.6666 5.61822
1 59.2473 67.2901 5.38782
2 54.6946 88.512 62.961
1 55.406 92.8782 63.2881
1 58.2151 96.9203 62.3778
1 57.6553 100.863 65.1553
1 55.1936 104.466 65.9986
2 46.1896 45.0322 48.4907
1 48.3077 41.1863 47.3952
1 50.1015 37.2845 46.4282
1 50.3196 33.5861 44.3648
1 50.6657 29.7243 41.2397
2 49.5762 25.1205 33.3247
1 51.4827 28.6798 35.8827
1 54.7166 31.2707 38.4648
1 56.0175 29.7598 42.9511
1 53.7858 28.9787 47.292
2 63.0355 65.7956 52.806
1 61.7066 64.4864 48.2496
1 58.7137 61.3374 46.1689
1 58.0713 57.4009 43.4887
1 55.6429 55.2185 40.4204
2 26.6477 105.731 147.428
1 25.7193 102.989 0.857396
1 27.8749 99.8752 3.70271
1 29.3655 98.9086 8.13951
1 32.1277 98.5654 12.1256
2 34.1341 93.5492 6.15319
1 36.5931 94.7981 2.08067
1 35.7743 95.429 147.358
1 34.2753 94.9456 142.62
1 34.8215 96.5136 138.392
2 9.58914 112.488 124.617
1 12.5722 108.983 124.178
1 15.5441 106.001 125.025
1 17.4617 101.552 123.291
1 19.4448 98.3018 126.19
2 50.5595 72.4697 63.9682
1 46.6071 72.6589 61.5083
1 45.0492 75.8803 58.4685
1 44.9251 80.5037 57.278
1 41.0068 83.7863 55.9198
2 2.12773 66.7049 53.3539
1 5.77769 65.047 51.9089
1 7.41626 62.4142 48.3746
1 6.2606 59.9646 44.5139
1 6.56335 59.078 39.579
2 21.555 82.3287 30.5286
1 20.0731 79.0399 33.8886
1 18.5215 74.731 35.2231
1 17.1175 71.2326 37.7463
1 15.6584 68.6282 41.5185
2 51.9787 50.8935 14.5763
1 47.485 51.7649 14.198
1 42.8255 52.6191 15.1953
1 39.8916 54.8223 13.0522
1 39.8985 56.3232 8.97785
2 26.7092 71.6983 123.399
1 31.2712 73.2759 122.84
1 35.8742 73.3548 124.837
1 38.3765 74.4316 128.327
1 40.7503 74.9681 132.092
2 20.6885 146.949 72.8789
1 17.1934 146.285 70.651
1 14.6619 147.675 66.9972
1 9.99813 147.313 66.447
1 8.63242 144.676 62.9839
2 76.7043 110.022 118.632
1 73.2107 109.005 115.428
1 69.0737 107.121 117.275
1 67.0112 108.093 121.612
1 68.0391 106.423 126.173
2 69.9283 80.335 49.071
1 66.2048 79.5962 45.4185
1 63.7273 81.8692 41.9504
1 61.5348 82.7024 37.9397
1 57.4207 83.5377 35.7376
2 6.02219 63.9762 2.38506
1 1.15983 64.4252 0.372764
1 0.156574 64.048 145.838
1 3.56245 61.9135 142.43
1 2.00426 61.2072 137.941
2 41.5809 84.3577 13.1643
1 41.219 80.6945 9.73681
1 43.3834 78.1842 6.33612
1 45.5257 74.0493 4.37284
1 49.562 73.6876 1.67447
2 30.5688 64.4701 19.9717
1 31.24 60.9967 17.112
1 30.8238 57.3605 14.8093
1 31.9325 52.08 13.6581
1 34.8768 48.8003 12.674
2 32.8707 76.1059 36.1037
1 36.8556 74.2799 37.5779
1 40.9408 73.4548 38.6546
1 44.8359 70.7526 37.6149
1 46.4938 66.8823 35.2412
2 71.8976 87.1586 98.9374
1 68.4582 85.9736 102.035
1 68.4653 82.586 105.458
1 65.1252 79.0819 106.251
1 62.178 79.2949 109.882
2 77.9684 85.3891 50.0784
1 78.5235 89.0675 47.5523
1 75.0255 91.3979 45.5601
1 71.3525 93.6463 45.6082
1 67.8015 96.7719 46.3555
2 19.2103 59.1376 66.0813
1 22.2915 62.2007 66.1797
1 26.5151 64.1525 66.9284
1 30.3163 64.6443 69.0122
1 30.6575 68.8946 71.4036
2 143.779 94.4508 62.9903
1 145.817 93.2345 58.68
1 0.36239 92.6326 57.6413
1 3.91274 89.7874 59.2184
1 6.23908 85.6882 60.696
2 50.9093 104.914 52.0102
1 46.6407 105.371 52.4742
1 42.0262 104.515 51.5334
1 38.2081 101.944 52.5187
1 37.5558 99.1706 56.153
2 49.8968 74.9977 85.6325
1 46.5298 73.1901 87.9825
1 45.9621 69.2416 90.3128
1 44.6819 68.7503 94.8078
1 44.7148 71.9648 98.1471
2 65.3452 51.5963 65.6701
1 62.6276 48.1363 63.4001
1 59.3873 46.9161 60.203
1 54.6117 47.813 60.3071
1 53.4562 52.1041 59.1213
2 9.28822 91.7123 101.31
1 12.2893 90.3418 98.0667
1 13.1846 87.6312 94.3386
1 11.1776 83.1088 94.1348
1 9.58154 80.0947 90.2754
2 58.9477 57.3083 87.1543
1 58.0394 53.8194 83.8481
1 57.3994 49.2675 83.1199
1 53.9374 46.0875 82.1591
1 53.0057 42.0745 84.4182
2 112.281 100.571 118.415
1 113.42 100.005 122.709
1 113.855 98.0868 126.794
1 113.397 95.9263 130.924
1 115.848 96.1926 134.753
2 139.875 124.548 117.133
1 143.965 124.627 119.612
1 147.091 128.436 119.581
1 1.35577 130.333 118.514
1 4.3929 133.553 119.567
2 48.1223 76.5682 74.1988
1 46.8693 71.8852 74.8974
1 47.5408 67.3461 74.4109
1 43.3094 64.8972 73.8473
1 39.7323 62.598 71.6053
2 140.653 123.567 71.0467
1 141.856 118.932 71.9365
1 146.142 116.557 71.2535
1 0.198355 116.362 73.2431
1 4.07232 114.014 72.4171
2 7.40729 103.824 71.0945
1 6.85678 99.2743 71.7526
1 4.08764 95.3319 72.1774
1 0.142342 93.8723 70.9256
1 148.392 89.9901 69.1106
2 11.6703 64.4063 77.0508
1 12.3088 68.8492 77.3179
1 10.9054 72.0087 74.2578
1 10.7272 72.3316 69.276
1 9.39717 70.5686 65.0218
2 91.7114 54.0076 79.9407
1 91.1309 52.7825 83.9206
1 88.6225 55.1797 87.2918
1 84.7988 54.6722 89.4933
1 80.2077 53.9341 90.5052
2 62.507 71.3532 51.3055
1 63.3631 71.7652 46.3975
1 62.7379 72.635 41.8698
1 64.455 71.3585 37.988
1 67.8934 68.7364 35.4775
2 52.8568 70.0651 90.245
1 49.2405 70.2796 93.3034
1 49.3917 69.6741 98.0732
1 48.9551 68.7981 102.602
1 48.6639 70.1589 106.874
2 73.325 63.3672 50.6669
1 77.2272 59.7576 51.3615
1 76.9637 55.1835 51.7426
1 80.2876 51.9378 54.0536
1 83.4195 49.0004 53.0595
2 22.3985 46.3607 31.9038
1 17.3416 46.6255 31.9191
1 13.8996 49.1769 33.4325
1 9.2871 48.7364 35.2342
1 6.00586 45.3433 35.531
2 130.552 85.0258 85.327
1 130.627 85.6973 80.7028
1 130.059 84.8905 76.0329
1 129.229 82.9141 71.4036
1 128.271 80.0868 68.3605
2 73.3673 111.395 142.532
1 73.4674 106.956 142.111
1 72.7008 102.233 142.383
1 69.4921 98.5849 144.18
1 65.0519 97.5868 142.269
2 53.6659 72.1829 58.9108
1 53.1772 71.049 54.6599
1 50.0104 69.9297 51.2269
1 46.8859 66.9999 49.5244
1 45.1285 65.8067 45.7882
2 53.6674 91.5043 74.8661
1 50.4337 94.8503 75.056
1 46.4069 95.1115 72.7401
1 45.1363 97.4959 68.9589
1 45.9233 101.04 66.4361
2 146.812 109.304 91.6141
1 143.686 109.548 87.767
1 144.193 107.157 84.0716
1 140.291 104.936 80.8845
1 135.684 105.184 78.9997
2 34.8943 100.496 16.9739
1 37.2121 104.693 16.8056
1 36.5241 108.699 18.7861
1 36.1324 113.393 19.1708
1 35.6048 116.892 16.847
2 63.8157 99.059 69.4596
1 65.1218 101.946 72.6646
1 63.2079 106.172 75.1886
1 65.2831 108.393 78.8243
1 63.5373 112.092 80.7041
2 61.918 51.6104 70.5468
1 65.249 48.0121 70.0012
1 67.1089 44.2788 68.198
1 67.0876 42.7085 63.918
1 67.0707 40.0193 60.252
2 87.3528 65.7873 52.1712
1 87.5273 60.9481 51.671
1 84.4859 56.9523 51.4016
1 82.7534 54.8477 47.6975
1 79.3017 53.0788 43.9338
2 41.1657 67.0901 47.8558
1 37.2651 66.61 45.6312
1 34.6528 67.2436 42.3696
1 32.564 68.2853 38.5369
1 31.1056 70.0973 34.4189
2 1.17946 77.7892 9.74002
1 148.568 81.1414 11.3195
1 145.599 84.5524 12.6465
1 145.348 88.8404 13.7004
1 145.754 93.6439 12.834
2 48.6444 80.7868 76.8314
1 47.9723 80.5919 80.9966
1 45.183 81.2086 84.5362
1 43.1321 79.1191 88.4514
1 44.1082 77.6064 92.9134
2 135.816 48.2365 115.601
1 132.631 51.909 116.832
1 130.449 53.5438 120.855
1 127.622 56.9052 123.192
1 125.005 61.2284 124.608
2 146.175 62.5635 44.5898
1 0.207552 65.0507 44.7194
1 4.14177 67.1854 45.4184
1 7.07012 69.3263 47.397
1 11.2954 71.0944 46.736
2 17.0128 81.7933 93.1245
1 18.1453 78.5399 96.8651
1 15.1904 75.9233 98.9954
1 10.8409 75.7548 97.6205
1 5.74033 75.1635 96.4882
2 49.0077 70.4038 68.037
1 45.9872 66.7259 67.1917
1 43.5048 64.5062 62.8189
1 40.5999 63.5766 59.1662
1 38.5802 66.7995 55.9525
2 49.4357 84.5924 72.1451
1 45.2573 87.0109 70.2942
1 40.8026 85.9714 69.5756
1 37.0121 84.5563 66.397
1 35.6169 84.7448 62.0881
2 147.515 49.5656 72.2445
1 144.846 48.8092 75.9897
1 141.377 46.8717 78.6855
1 138.169 44.1259 79.6693
1 134.137 41.0363 80.7512
2 13.8261 67.3214 103.172
1 12.876 71.8415 104.84
1 11.4102 74.3963 108.459
1 9.1529 76.3293 112.333
1 4.38104 75.6346 114.25
2 148.421 70.2832 102.182
1 145.948 69.315 98.2664
1 145.446 67.3689 93.8745
1 142.403 67.7872 89.9004
1 143.092 68.6363 85.6449
2 29.5809 103.476 33.8489
1 33.4862 105.581 34.33
1 35.5774 108.617 37.1581
1 36.7273 113 34.9865
1 37.8152 117.06 33.0077
2 50.8436 80.5646 64.3774
1 46.6213 79.3645 65.6766
1 43.9841 76.5697 62.8438
1 40.0713 78.2113 60.2528
1 37.1588 80.1965 56.1524
2 51.0259 64.5261 66.9832
1 48.349 62.2682 63.8858
1 47.7499 60.068 59.3552
1 45.273 60.1459 55.4074
1 44.8339 58.5806 50.7802
2 53.8146 58.0977 74.0999
1 49.4628 58.7637 71.8478
1 44.7752 59.438 71.3097
1 42.1992 57.9672 67.7636
1 37.7596 58.882 67.3823
2 67.6269 77.5071 34.2976
1 71.892 77.486 35.5771
1 75.593 79.2895 38.1757
1 79.974 80.0434 37.7591
1 84.0198 82.2544 37.1759
2 37.2209 7.56725 68.788
1 37.1771 9.49814 64.55
1 35.9574 10.0546 59.5613
1 34.8625 8.15924 55.4999
1 32.831 6.35207 51.9006
2 50.8152 76.0717 37.7057
1 46.6659 76.5213 38.8288
1 43.2495 79.7699 39.9983
1 38.5862 80.3659 41.5347
1 35.1788 82.9032 39.9619
2 72.6312 34.6138 40.6176
1 73.8388 38.482 42.5905
1 71.9564 42.1622 43.9904
1 71.624 44.3048 48.4198
1 70.0378 48.7335 50.3193
2 52.4825 79.3421 89.2604
1 49.3782 78.8405 92.7574
1 46.3963 81.4115 95.0778