LAMMPS (23 Jun 2022)
OMP_NUM_THREADS environment is not set. Defaulting to 1 thread. (src/src/comm.cpp:98)
  using 1 OpenMP thread(s) per MPI task
Created orthogonal box = (0 0 0) to (150 150 150)
  4 by 4 by 4 MPI processor grid
Read molecule template lig:
  1 molecules
  0 fragments
  5 atoms with max type 2
  4 bonds with max type 1
  3 angles with max type 1
  0 dihedrals with max type 0
  0 impropers with max type 0
Created 1 atoms
  using box units in orthogonal box = (0 0 0) to (150 150 150)
  create_atoms CPU = 0.000 seconds
Created 3000 atoms
  using lattice units in orthogonal box = (0 0 0) to (150 150 150)
  create_atoms CPU = 0.004 seconds
Finding 1-2 1-3 1-4 neighbors ...
  special bond factors lj:    0        1        1       
  special bond factors coul:  0        0        0       
     2 = max # of 1-2 neighbors
     2 = max # of 1-3 neighbors
     2 = max # of 1-4 neighbors
     7 = max # of special neighbors
  special bonds CPU = 0.001 seconds
3000 atoms in group ligands
Generated 0 of 6 mixed pair_coeff terms from geometric mixing rule
Neighbor list info ...
  update every 1 steps, delay 10 steps, check yes
  max neighbors/atom: 2000, page size: 100000
  master list distance cutoff = 60
  ghost atom cutoff = 60
  binsize = 30, bins = 5 5 5
  1 neighbor lists, perpetual/occasional/extra = 1 0 0
  (1) pair lj/expand, perpetual
      attributes: half, newton on
      pair build: half/bin/newton
      stencil: half/bin/3d
      bin: standard
Setting up Verlet run ...
  Unit style    : real
  Current step  : 0
  Time step     : 30
Per MPI rank memory allocation (min/avg/max) = 8.076 | 8.105 | 8.367 Mbytes
   Step          Temp          E_pair         E_mol          TotEng         Press     
         0   0              9.8623636e+13  4.0068356e-25  9.8623636e+13  8.0147754e+12
      5000   142.80521     -569.17688      648.90331      1356.752      -1.0310346    
     10000   143.64414     -700.98666      635.93723      1219.4783      10.789953    
Loop time of 3.86449 on 64 procs for 10000 steps with 3001 atoms

Performance: 6707.221 ns/day, 0.004 hours/ns, 2587.663 timesteps/s
99.4% CPU use with 64 MPI tasks x 1 OpenMP threads

MPI task timing breakdown:
Section |  min time  |  avg time  |  max time  |%varavg| %total
---------------------------------------------------------------
Pair    | 0.017171   | 0.049791   | 0.15505    |  11.1 |  1.29
Bond    | 0.010564   | 0.02031    | 0.037312   |   3.9 |  0.53
Neigh   | 0.54967    | 0.55766    | 0.57282    |   0.6 | 14.43
Comm    | 2.9998     | 3.153      | 3.2108     |   2.2 | 81.59
Output  | 0.0012666  | 0.0012822  | 0.0012911  |   0.0 |  0.03
Modify  | 0.021047   | 0.038754   | 0.071595   |   5.4 |  1.00
Other   |            | 0.04373    |            |       |  1.13

Nlocal:        46.8906 ave          88 max          24 min
Histogram: 11 4 14 5 15 6 5 2 0 2
Nghost:        3415.42 ave        3485 max        3337 min
Histogram: 1 7 3 9 7 11 12 5 5 4
Neighs:        331.438 ave        1056 max          88 min
Histogram: 12 17 11 16 3 3 0 0 0 2

Total # of neighbors = 21212
Ave neighs/atom = 7.0683106
Ave special neighs/atom = 3.5988004
Neighbor list builds = 909
Dangerous builds = 0
1 atoms in group nps
600 atoms in group amines
Generated 0 of 6 mixed pair_coeff terms from geometric mixing rule
Neighbor list info ...
  update every 1 steps, delay 10 steps, check yes
  max neighbors/atom: 2000, page size: 100000
  master list distance cutoff = 60
  ghost atom cutoff = 60
  binsize = 30, bins = 5 5 5
  3 neighbor lists, perpetual/occasional/extra = 1 2 0
  (1) pair lj/expand, perpetual
      attributes: half, newton on
      pair build: half/bin/newton
      stencil: half/bin/3d
      bin: standard
  (2) compute coord/atom, occasional
      attributes: full, newton on
      pair build: full/bin
      stencil: full/bin/3d
      bin: standard
  (3) compute coord/atom, occasional
      attributes: full, newton on
      pair build: full/bin
      stencil: full/bin/3d
      bin: standard
Setting up Verlet run ...
  Unit style    : real
  Current step  : 10000
  Time step     : 30
Per MPI rank memory allocation (min/avg/max) = 10.11 | 10.23 | 12.12 Mbytes
   Step          Temp          E_pair         E_mol          TotEng         Press     
     10000   143.64414     -700.98666      635.93723      1219.4783      10.789953    
     15000   300.6448      -700.97142      1282.0151      3269.5387     -3.7862021    
     20000   297.19589     -779.64859      1310.5227      3188.5276      6.0014106    
     25000   297.50935     -926.94638      1242.7746      2976.2848      8.9039879    
     30000   287.06271     -1015.1763      1281.4153      2833.2772      19.122226    
     35000   304.80365     -1110.7275      1289.6276      2904.5854     -8.3332487    
     40000   301.47576     -1198.3661      1272.9457      2770.5055     -9.4875635    
     45000   303.53946     -1267.2661      1274.7878      2721.9021      8.3215453    
     50000   298.89839     -1354.1649      1303.6969      2622.41        8.1896826    
     55000   302.70761     -1376.3004      1283.4523      2614.0936     -2.26906      
     60000   299.38055     -1439.4006      1268.6241      2506.4132     -6.6805072    
     65000   289.36597     -1517.7203      1290.3945      2360.3091      2.5834013    
     70000   304.95569     -1577.7102      1271.3886      2420.7234     -13.973213    
     75000   299.59923     -1627.7903      1292.0649      2343.4198     -15.795196    
     80000   303.66315     -1670.2781      1286.9416      2332.1499      7.1531566    
     85000   301.69192     -1729.2429      1225.6768      2194.2928     -1.265802     
     90000   297.13493     -1723.7118      1252.2504      2185.6469      2.742417     
     95000   299.79822     -1766.7377      1228.4306      2142.6175      20.828871    
    100000   297.67936     -1836.2912      1228.7892      2054.4749     -5.6471112    
    105000   295.28489     -1873.3192      1247.0378      2014.2831      1.686109     
    110000   304.3941      -1888.402       1310.9268      2144.5477     -6.8241732    
    115000   304.56274     -1877.0196      1324.4979      2171.0094      13.586283    
    120000   297.95387     -1904.9005      1235.4921      1995.0233      4.5003308    
    125000   296.8195      -1927.381       1283.4259      2010.3325     -9.3374649    
    130000   292.73948     -1964.7465      1256.8134      1909.8693      4.4407788    
    135000   298.43005     -1995.8757      1294.5409      1967.3552      15.52862     
    140000   297.94774     -2007.2803      1271.9608      1929.0574     -16.065355    
    145000   301.05196     -2006.0499      1253.9659      1940.0521     -21.709645    
    150000   302.34962     -2047.4751      1274.0746      1930.3399     -4.1334406    
    155000   296.96316     -2114.026       1281.0119      1822.5583     -4.8026731    
    160000   299.55484     -2097.089       1241.7929      1823.4521      12.223808    
    165000   294.81662     -2131.2295      1194.4852      1699.6327      3.1464298    
    170000   305.89783     -2144.2055      1225.7246      1816.9891     -4.2319706    
    175000   301.02187     -2176.131       1279.3938      1795.1298      22.515487    
    180000   300.96192     -2172.7712      1220.2333      1738.7931     -30.012681    
    185000   295.61838     -2202.0368      1220.6578      1662.1677     -0.10601192   
    190000   300.41954     -2210.3319      1272.9753      1749.1241      7.9961291    
    195000   300.74282     -2254.797       1249.7858      1684.3605      8.016719     
    200000   308.07979     -2282.7001      1263.493       1735.7749     -7.9729185    
    205000   301.01577     -2258.8313      1218.9968      1651.978      -26.736973    
    210000   295.52798     -2272.572       1223.8855      1594.0518      6.9776526    
    215000   296.70136     -2262.1853      1266.2738      1657.3197      0.32690245   
    220000   293.61807     -2270.8665      1238.67        1593.4626     -6.4923175    
    225000   306.4945      -2286.2299      1254.5591      1709.1348      10.320748    
    230000   310.2974      -2297.6867      1284.8218      1761.948       24.240909    
    235000   297.47774     -2289.5781      1260.042       1630.6378      10.493278    
    240000   293.96428     -2304.9509      1247.2218      1571.026       4.1239855    
    245000   306.38595     -2266.53        1255.3177      1728.6227      9.9733038    
    250000   296.36952     -2340.3398      1308.9336      1618.8575      9.9004332    
    255000   298.67099     -2353.8867      1213.9914      1530.9492      3.9286072    
    260000   302.47803     -2377.0283      1267.1728      1595.0332      12.98131     
    265000   294.58059     -2398.4712      1240.4308      1476.226       13.475144    
    270000   299.93227     -2367.5938      1221.1639      1535.6935      9.0990027    
    275000   298.13927     -2386.5663      1204.1081      1483.6313      4.6297499    
    280000   304.67678     -2401.1351      1237.3224      1560.7381      8.7347777    
    285000   301.78574     -2372.2866      1204.3289      1530.7402      20.468832    
    290000   300.15721     -2373.9942      1269.4383      1579.579      -3.6188157    
    295000   299.6504      -2380.6125      1204.0307      1503.021       9.4325348    
    300000   303.38289     -2399.789       1269.4656      1582.6568     -8.8295431    
    305000   301.31196     -2442.228       1225.3133      1477.5465     -16.190752    
    310000   303.96918     -2436.6888      1186.8706      1468.4049      4.8610624    
    315000   299.18076     -2460.1182      1255.5712      1470.856      -9.2542786    
    320000   301.99029     -2454.4854      1265.2252      1511.2669      24.787163    
    325000   292.6613      -2455.8001      1226.3935      1387.6966     -2.1619426    
    330000   313.21594     -2431.4626      1236.3286      1605.7776      13.729201    
    335000   301.0071      -2457.5826      1277.3535      1511.5059     -13.436957    
    340000   305.11669     -2471.0744      1250.9825      1508.3928      19.826227    
    345000   307.19302     -2473.3188      1239.0287      1512.762       4.8567712    
    350000   299.02068     -2447.0493      1187.2871      1414.2093      10.31515     
    355000   298.52145     -2448.8363      1256.167       1476.838       11.182568    
    360000   294.1833      -2429.5681      1254.4959      1455.6414      2.0058025    
    365000   295.6182      -2450.7806      1219.8291      1412.5936      36.421921    
    370000   293.99428     -2405.2786      1270.3471      1494.0917     -3.7164713    
    375000   296.97053     -2405.4137      1273.0773      1523.3017      31.067225    
    380000   294.03126     -2400.6         1280.6422      1509.3962     -4.606075     
    385000   301.50539     -2422.1256      1250.4483      1524.5136      0.1585655    
    390000   295.69533     -2389.6362      1223.0239      1477.6224      6.9702033    
    395000   296.34197     -2392.8982      1225.768       1482.8872     -11.277637    
    400000   306.36502     -2388.1304      1280.6221      1632.1394     -8.686786     
    405000   297.46631     -2434.0723      1249.759       1475.7584      3.0834473    
    410000   297.76762     -2431.1298      1242.9533      1474.5896      13.480735    
    415000   295.73383     -2435.443       1193.7558      1402.892      -4.9990053    
    420000   309.64907     -2428.3458      1240.7632      1581.4325     -2.9085952    
    425000   296.61269     -2473.2127      1276.3124      1455.538      -6.272312     
    430000   299.92719     -2465.8542      1242.2414      1458.4652     -1.4999682    
    435000   301.15275     -2483.4539      1286.4952      1496.0787     -16.679111    
    440000   306.22231     -2472.3667      1232.7986      1498.8035     -11.977611    
    445000   297.42848     -2455.8851      1247.1091      1450.9574     -3.5850698    
    450000   297.65213     -2512.4058      1260.3093      1409.6369     -10.12427     
    455000   297.91435     -2507.8575      1266.8331      1423.0539      12.528919    
    460000   302.59576     -2480.0279      1248.3782      1474.2918      22.755834    
    465000   297.64566     -2476.7308      1216.6542      1401.599       0.049043839  
    470000   296.21214     -2499.0943      1216.5304      1366.2924      12.733718    
    475000   300.59439     -2506.8979      1241.1573      1422.3038      13.118813    
    480000   305.1077      -2546.4319      1212.1695      1394.1419      13.731449    
    485000   290.94265     -2538.5932      1235.6447      1298.7858      3.3694404    
    490000   299.58297     -2552.5031      1279.453       1405.9496      6.0222015    
    495000   305.64616     -2519.5726      1239.5423      1453.1892      4.4462616    
    500000   295.00419     -2510.5628      1226.8635      1354.3552      29.697459    
    505000   297.46161     -2527.3291      1205.375       1338.0756     -1.6740725    
    510000   300.34068     -2525.0841      1262.8533      1423.5447      19.394103    
    515000   293.05422     -2537.1171      1240.5666      1324.0664      14.9795      
    520000   294.51108     -2516.1558      1245.0369      1362.5258      10.415445    
    525000   299.80165     -2521.2925      1185.5243      1345.1871      7.3781338    
    530000   298.13398     -2565.1244      1220.0128      1320.9307     -20.784068    
    535000   296.5271      -2543.1442      1246.4161      1354.9447     -1.0238126    
    540000   297.84375     -2529.2748      1229.001       1363.1732      28.613144    
    545000   292.48976     -2532.7405      1206.7203      1289.5491      9.9360823    
    550000   298.1523      -2564.6354      1225.9142      1327.4849      7.787991     
    555000   293.14246     -2566.2311      1285.5102      1340.6851      6.869713     
    560000   292.92272     -2579.4658      1266.3276      1306.3028      6.1955245    
    565000   305.85008     -2536.7035      1233.8004      1432.1398      19.438024    
    570000   306.10019     -2546.0212      1269.6687      1460.927      -10.917912    
    575000   307.11165     -2549.214       1240.7475      1437.858       14.471642    
    580000   304.84781     -2549.4424      1249.4454      1426.0832      11.951545    
    585000   307.29145     -2516.4247      1244.5051      1476.0127      5.5510374    
    590000   306.29937     -2538.3627      1246.7663      1447.4643     -11.055079    
    595000   303.97145     -2527.918       1216.8404      1407.1658      10.523982    
    600000   303.63434     -2540.3445      1219.7537      1394.6381      2.1196946    
    605000   294.99066     -2548.7709      1228.0559      1317.2184      1.2159202    
    610000   304.47771     -2562.5562      1217.9346      1378.1491      22.681801    
    615000   296.37105     -2526.3826      1214.4967      1338.3914      21.121422    
    620000   304.9315      -2537.7477      1242.4208      1431.5017      18.160912    
    625000   306.3408      -2584.6779      1315.4327      1470.1861      2.1851575    
    630000   291.38216     -2551.0903      1220.665       1275.2393      16.562939    
    635000   303.84404     -2542.6877      1227.3534      1401.7699      6.0532614    
    640000   291.27557     -2523.5257      1194.9383      1276.1241      11.781171    
    645000   300.1684      -2559.9278      1216.4957      1340.8028     -1.1686968    
    650000   294.93431     -2564.758       1238.8992      1311.5707      22.411446    
    655000   291.80498     -2522.1348      1235.0065      1322.3174      1.237325     
    660000   304.01436     -2538.8574      1269.386       1449.1558      11.232276    
    665000   298.78427     -2530.9847      1311.2247      1452.0975      11.399673    
    670000   298.67165     -2551.1147      1191.8695      1311.6052     -14.28391     
    675000   297.98889     -2578.5248      1212.3242      1298.5443      29.349208    
    680000   301.2557      -2598.3014      1267.1226      1362.7793     -16.720512    
    685000   297.83785     -2579.9089      1230.1728      1313.6581      19.08426     
    690000   299.59725     -2580.0277      1263.9552      1363.0551      13.370647    
    695000   301.85054     -2566.8099      1221.2402      1353.7077     -4.753697     
    700000   298.56968     -2563.0541      1233.0298      1339.9143     -4.9200047    
    705000   301.03837     -2510.0617      1222.6748      1404.6277     -3.8339306    
    710000   304.43678     -2551.6727      1255.8169      1426.5488     -6.4691769    
    715000   293.60183     -2552.5792      1233.0252      1305.9598     -3.2536227    
    720000   298.03675     -2566.4396      1234.0965      1332.8296      18.765713    
    725000   298.85823     -2540.7266      1219.6062      1351.3984     -23.270298    
    730000   297.31639     -2575.2134      1204.2848      1287.8024      7.1736711    
    735000   303.56291     -2534.5616      1229.6456      1409.6742      19.033248    
    740000   298.81036     -2510.5542      1264.1912      1425.7278      8.2297368    
    745000   302.94801     -2553.4842      1195.1308      1350.7381      1.914286     
    750000   302.02943     -2547.7719      1272.2953      1425.4005      1.4191409    
    755000   293.21319     -2529.6709      1211.9395      1304.3072     -6.1504794    
    760000   294.83063     -2553.5801      1266.8677      1349.7899      7.736228     
    765000   302.94714     -2528.2264      1286.7411      1467.5984      3.324878     
    770000   296.6311      -2535.7951      1225.7459      1342.5537     -28.649369    
    775000   299.46295     -2566.4984      1248.9867      1360.4148      1.7121989    
    780000   300.36159     -2552.9259      1284.1414      1417.1781      1.6736568    
    785000   303.93851     -2567.6859      1246.8524      1397.1154     -9.4994445    
    790000   288.33619     -2577.688       1246.7002      1247.4385      0.017271299  
    795000   291.15075     -2568.7658      1204.6752      1239.5047      9.8989317    
    800000   296.92379     -2571.3082      1262.643       1346.555       12.834183    
    805000   306.70517     -2587.2782      1204.6685      1360.0799      13.873049    
    810000   293.74364     -2590.2497      1207.6437      1244.176      -4.5631811    
    815000   308.39361     -2560.4541      1275.072       1472.4062      17.06387     
    820000   298.44976     -2546.1103      1252.2815      1375.0373     -19.099195    
    825000   294.51582     -2560.9381      1214.0976      1286.8467      8.6887519    
    830000   298.21285     -2565.212       1254.6872      1356.2228      15.372369    
    835000   290.59144     -2578.1088      1299.684       1320.1689     -7.3545158    
    840000   312.57575     -2569.0392      1293.3551      1519.5027      3.1192855    
    845000   292.49806     -2563.4949      1226.8709      1279.0195     -13.119011    
    850000   298.21615     -2594.9393      1224.574       1296.4117     -16.142328    
    855000   300.83088     -2560.6763      1267.8486      1397.3315      2.435969     
    860000   298.77797     -2592.5265      1221.0526      1300.3271     -14.6531      
    865000   297.56228     -2602.5795      1221.3604      1279.7108      6.8625574    
    870000   306.19397     -2599.5769      1203.6599      1342.2012      4.3657945    
    875000   296.75053     -2625.3503      1270.4945      1298.8151     -23.344337    
    880000   308.11872     -2612.952       1259.3212      1401.6994      8.022992     
    885000   298.75899     -2602.1525      1259.0681      1328.5469     -16.016853    
    890000   301.16704     -2584.3778      1249.7693      1358.5568      8.9516893    
    895000   295.423       -2602.2889      1220.3362      1259.8468     -2.2255778    
    900000   301.23228     -2604.6655      1257.2657      1346.3488      18.364541    
    905000   303.07132     -2576.4869      1177.6064      1311.3136      1.5191217    
    910000   298.65803     -2601.5196      1198.4705      1267.6795      16.017794    
    915000   293.90193     -2583.6305      1255.3745      1299.9415      11.605118    
    920000   305.94746     -2576.731       1265.8958      1425.0786     -0.73512794   
    925000   298.81572     -2575.1478      1243.4842      1340.4751      10.463424    
    930000   298.97178     -2573.293       1249.7912      1350.0325      1.7715642    
    935000   293.06888     -2593.1369      1266.1335      1293.7446      14.020481    
    940000   301.11567     -2619.8865      1241.735       1314.5545     -9.5903497    
    945000   303.24252     -2624.6553      1221.4886      1308.5584      24.096631    
    950000   303.14453     -2591.5041      1237.5097      1356.8543      14.403823    
    955000   297.07222     -2573.4521      1237.5509      1320.6463      3.1027118    
    960000   303.59397     -2564.3351      1232.5421      1383.0749      24.327086    
    965000   292.15225     -2566.1687      1242.2291      1288.6115     -0.05830888   
    970000   289.54213     -2554.9842      1247.6674      1281.8934     -6.9098112    
    975000   309.18904     -2565.062       1175.1216      1374.961       7.4636756    
    980000   305.86629     -2574.3049      1240.8801      1401.7631      17.388686    
    985000   296.02132     -2571.4632      1255.7388      1331.4257      22.787833    
    990000   305.09656     -2559.1373      1211.0689      1380.2362      20.678858    
    995000   306.21299     -2589.4881      1194.7655      1343.5657      1.5006365    
   1000000   300.99455     -2552.8378      1205.6659      1344.4509      0.14512132   
   1005000   297.85351     -2541.1561      1252.1962      1374.5743     -1.7983321    
   1010000   306.36581     -2537.8341      1230.8729      1432.6936      22.105288    
   1015000   301.09531     -2543.4508      1236.0006      1385.0736      2.7849973    
   1020000   311.19337     -2520.4309      1254.6862      1517.0803      5.8153895    
   1025000   294.85481     -2526.5109      1226.1458      1336.3533     -0.72300875   
   1030000   300.71498     -2533.8269      1248.8067      1404.1026     -5.3143704    
   1035000   293.78476     -2539.8785      1320.4347      1407.7058      2.4071271    
   1040000   294.72269     -2567.7343      1302.3102      1370.1131      3.7720769    
   1045000   302.24574     -2548.9816      1205.251       1359.0808      16.97153     
   1050000   304.5033      -2581.2203      1234.882       1376.6611     -1.634361     
   1055000   302.92477     -2498.5107      1251.3205      1461.6935     -0.3947018    
   1060000   302.90928     -2562.8102      1239.5978      1385.5327      6.9312815    
   1065000   297.75527     -2534.5726      1305.6699      1433.753      -3.7942897    
   1070000   290.59664     -2535.8491      1184.2256      1247.0165      11.094999    
   1075000   298.01759     -2484.3635      1293.0232      1473.6612      14.101427    
   1080000   292.68695     -2526.9022      1226.6195      1317.0499     -2.7225541    
   1085000   299.39797     -2505.8309      1280.9365      1452.451      -1.3994377    
   1090000   295.76621     -2511.1949      1243.698       1377.3718      16.296309    
   1095000   300.1236      -2523.7999      1253.6582      1413.6926      7.5872607    
   1100000   299.66278     -2525.1657      1208.1989      1362.7467      13.135852    
   1105000   303.43869     -2496.434       1221.2337      1438.279       15.048321    
   1110000   305.9202      -2543.2551      1242.1507      1434.5657     -6.2585238    
   1115000   297.86899     -2542.6024      1252.5428      1373.613      -0.92374275   
   1120000   300.54989     -2524.0152      1240.4687      1404.1         3.9761534    
   1125000   299.7487      -2563.4271      1194.3989      1311.4536      5.5592975    
   1130000   296.14797     -2536.536       1224.6936      1336.4401      3.6295998    
   1135000   293.04229     -2568.4416      1268.6342      1320.7028      16.62189     
   1140000   295.62503     -2563.8285      1209.4957      1289.2734     -26.070942    
   1145000   304.13614     -2572.8258      1221.9096      1368.7999     -4.9649732    
   1150000   305.24001     -2574.6443      1266.3146      1421.2578     -10.188587    
   1155000   300.4533      -2581.3318      1208.5241      1313.9751     -13.72008     
   1160000   295.90388     -2590.3414      1262.5883      1318.3466      7.9890345    
   1165000   299.47595     -2577.25        1251.8981      1352.6908      20.241698    
   1170000   303.88734     -2580.4692      1260.9993      1398.0214      10.450564    
   1175000   298.55878     -2572.4857      1229.5358      1326.8912     -4.9094715    
   1180000   298.53811     -2594.3198      1275.4699      1350.8062      1.8555547    
   1185000   296.8617      -2531.3927      1233.6483      1356.9207      2.0099701    
   1190000   293.50991     -2545.8415      1215.8753      1294.7256      12.446503    
   1195000   296.64795     -2580.8636      1210.528       1282.418       10.009244    
   1200000   296.38039     -2575.5891      1183.7175      1258.4894      9.6932037    
   1205000   309.80037     -2606.9783      1241.9975      1405.3873     -13.525794    
   1210000   291.79585     -2564.1856      1217.3239      1262.5023      3.7426531    
   1215000   293.41242     -2575.2441      1237.2196      1285.7955      29.193846    
   1220000   302.2792      -2575.1687      1218.7949      1346.7368      20.314332    
   1225000   294.36949     -2587.5684      1212.0792      1256.8895      8.5120245    
   1230000   298.14726     -2599.7796      1231.712       1298.0935     -16.217362    
   1235000   304.5725      -2576.8855      1190.1724      1336.9051     -17.81403     
   1240000   299.37317     -2567.1812      1235.11        1345.0525      10.954262    
   1245000   302.78432     -2558.5125      1244.485       1393.6001      7.7843788    
   1250000   299.61392     -2572.4216      1266.1702      1373.0252     -2.1693489    
   1255000   299.5903      -2568.8221      1300.3709      1410.6141      4.493582     
   1260000   306.51355     -2605.6075      1207.1922      1342.5607      24.719347    
   1265000   297.71746     -2641.2707      1276.2148      1297.2618      8.1359418    
   1270000   306.2285      -2584.759       1170.4341      1324.102      -10.573294    
   1275000   297.22441     -2594.3013      1213.1868      1276.794       3.9222978    
   1280000   303.2905      -2590.9412      1211.6902      1332.9031     -1.5297549    
   1285000   302.77914     -2630.4762      1266.4392      1343.5444      18.611097    
   1290000   296.25713     -2595.3275      1210.9607      1264.8919      9.4973908    
   1295000   296.75544     -2588.0566      1251.4127      1317.0709      6.6989286    
   1300000   293.13122     -2593.323       1249.3338      1277.3163      22.072269    
   1305000   299.35128     -2614.7957      1210.0504      1272.1827      7.5607197    
   1310000   299.77357     -2583.978       1224.3186      1321.0448      13.314099    
   1315000   294.35795     -2582.2247      1271.1358      1321.1865      3.3308622    
   1320000   293.21886     -2584.3339      1232.1625      1269.9179      4.912121     
   1325000   309.70549     -2588.8646      1179.652       1360.3071      34.581564    
   1330000   299.88216     -2598.1729      1228.0043      1311.5068      5.3517074    
   1335000   303.32105     -2586.0998      1257.7821      1384.1096      7.7194891    
   1340000   297.44543     -2605.4653      1209.3139      1263.7337     -16.58366     
   1345000   294.35433     -2615.3836      1234.8142      1251.6737     -19.912049    
   1350000   299.15511     -2605.7539      1237.0266      1306.4464      3.5884145    
   1355000   301.10391     -2572.9466      1213.8704      1333.5244      22.174324    
   1360000   295.84062     -2590.3774      1243.0383      1298.195      -3.3473938    
   1365000   298.21846     -2577.5053      1265.0208      1354.3133     -18.964294    
   1370000   292.56755     -2605.7282      1262.2242      1272.7609      2.3737065    
   1375000   301.83695     -2606.784       1227.1859      1319.5578      9.307634     
   1380000   297.27952     -2586.123       1270.0135      1342.2918     -3.0850664    
   1385000   295.14662     -2621.7556      1235.0331      1252.6055      4.0049063    
   1390000   292.35687     -2609.4623      1215.519       1220.4377     -2.7008062    
   1395000   305.70357     -2627.4024      1212.4403      1318.7706      0.33477293   
   1400000   299.78778     -2586.9088      1212.6367      1306.5592     -11.493122    
   1405000   296.59211     -2592.9291      1251.3604      1310.6855      6.88779      
   1410000   300.64883     -2549.0675      1274.4128      1413.8765      32.514053    
   1415000   297.53077     -2569.6406      1177.8516      1268.8592      33.391129    
   1420000   296.87544     -2573.3445      1256.6329      1338.0763     -8.8502807    
   1425000   303.19505     -2597.9542      1230.6376      1343.9839     -10.800145    
   1430000   299.95344     -2559.1817      1254.1411      1377.2721      0.44089709   
   1435000   299.00265     -2588.5486      1290.2147      1375.4764     -4.3305337    
   1440000   293.514       -2563.8051      1304.266       1365.1894     -6.149562     
   1445000   300.18886     -2594.4514      1232.6589      1322.6255      6.0558427    
   1450000   299.02633     -2585.9408      1248.5396      1336.6209     -10.101994    
   1455000   299.43316     -2570.2393      1196.6816      1304.1023     -7.1540216    
   1460000   298.74769     -2577.8454      1224.1248      1317.8097     -7.3699316    
   1465000   295.95045     -2554.7439      1206.2356      1298.0079      8.822126     
   1470000   303.2138      -2568.7473      1237.7942      1380.5151      1.6850206    
   1475000   305.04676     -2554.6583      1295.0537      1468.2547      44.845728    
   1480000   299.77335     -2593.8542      1260.6616      1347.5096     -6.4506474    
   1485000   296.36129     -2570.6114      1170.2566      1249.8354     -21.596792    
   1490000   301.17457     -2610.3458      1273.6138      1356.5005     -11.754758    
   1495000   298.84195     -2622.8444      1255.0454      1304.5743      5.3155397    
   1500000   296.46102     -2579.0227      1237.0292      1309.0884      18.241575    
   1505000   303.80622     -2588.0654      1215.2823      1343.9829     -10.514976    
   1510000   294.89592     -2573.2311      1241.348       1305.2031     -5.5806536    
   1515000   294.71996     -2582.4783      1222.2239      1275.2583      2.7262913    
   1520000   299.66732     -2557.3483      1205.1369      1327.5427      12.286864    
   1525000   295.80272     -2574.0227      1273.2732      1344.4456      15.382188    
   1530000   297.81237     -2580.6179      1233.3819      1315.9303      3.6937251    
   1535000   310.17483     -2577.9766      1213.4215      1409.1617     -13.881322    
   1540000   300.93207     -2554.9389      1196.5003      1332.6255     -14.054369    
   1545000   294.51686     -2572.6112      1248.7782      1309.8635      2.5266875    
   1550000   293.823       -2560.4913      1282.356       1349.3564     -6.5858746    
   1555000   305.39096     -2593.2015      1211.7456      1349.4814     -15.05432     
   1560000   299.27546     -2566.0744      1268.3103      1378.4858      10.958207    
   1565000   306.81056     -2570.6245      1224.0182      1397.0257      10.5913      
   1570000   292.56651     -2544.7633      1230.7293      1302.2216     -20.100483    
   1575000   299.99514     -2539.2049      1261.5317      1405.0124     -8.8550676    
   1580000   304.71793     -2568.6739      1210.6767      1366.9215      5.4752921    
   1585000   295.25247     -2626.743       1242.5522      1256.0838      25.363962    
   1590000   300.94457     -2599.6199      1235.5674      1327.1233      18.761424    
   1595000   300.46987     -2623.5217      1171.83        1235.2392      8.9330993    
   1600000   296.26897     -2638.4978      1219.2855      1230.1523     -0.086708765  
   1605000   307.67988     -2640.3857      1219.2181      1330.2383      11.932379    
   1610000   298.96575     -2643.6444      1226.9634      1256.7994      2.0648541    
   1615000   299.341       -2633.2133      1217.5177      1261.1404     -4.317281     
   1620000   306.44834     -2669.2357      1230.9013      1302.0585     -4.8583242    
   1625000   307.40131     -2679.6881      1257.4305      1326.6571      18.534065    
   1630000   298.99475     -2626.9289      1196.2559      1243.0667     -14.526499    
   1635000   306.69922     -2599.7216      1238.0156      1380.9303      20.266137    
   1640000   296.5792      -2600.6118      1193.3969      1244.9238      1.6228836    
   1645000   298.25606     -2580.2358      1224.5903      1311.4884      4.0660744    
   1650000   297.02513     -2591.2041      1260.1858      1325.1082      8.8699207    
   1655000   303.76771     -2647.3947      1290.6665      1359.6934      22.111322    
   1660000   302.7683      -2647.9081      1208.8492      1268.4255      20.38296     
   1665000   288.27696     -2641.2728      1221.1038      1157.7276      5.8287668    
   1670000   299.3875      -2650.4883      1277.087       1303.8505      6.7080529    
   1675000   295.18663     -2625.6119      1228.8273      1242.9013      18.141576    
   1680000   299.34097     -2619.8176      1221.4849      1278.503      -0.57817064   
   1685000   302.27051     -2611.058       1210.5509      1302.5258     -3.9440193    
   1690000   297.10921     -2597.0361      1237.7603      1297.6026      7.4491133    
   1695000   302.03583     -2604.3788      1237.3542      1333.9097      2.0310577    
   1700000   303.08697     -2631.8519      1217.7145      1296.1966      33.690973    
   1705000   301.31769     -2588.321       1266.5877      1372.7791      28.072284    
   1710000   303.72412     -2611.3802      1172.316       1276.9675      0.56089679   
   1715000   299.58259     -2629.0389      1232.4054      1282.3629      21.721818    
   1720000   298.79287     -2622.5593      1211.7824      1261.1575      8.1845591    
   1725000   296.08888     -2652.2242      1226.2513      1221.7812      13.981995    
   1730000   298.86927     -2650.8731      1227.6356      1249.3801      9.3029884    
   1735000   304.17173     -2683.4608      1207.358       1243.9316      24.804288    
   1740000   300.34605     -2665.1196      1258.0933      1278.7973     -5.4442075    
   1745000   307.18517     -2645.5672      1233.3053      1334.7199      12.939282    
   1750000   305.34627     -2658.6609      1216.9512      1288.8279      29.678657    
   1755000   301.31436     -2633.8194      1216.1717      1276.8349      10.789737    
   1760000   308.67692     -2647.8016      1212.604       1325.1242      25.568791    
   1765000   299.08097     -2702.2414      1193.5853      1165.8546      12.799666    
   1770000   300.23012     -2681.6119      1215.5322      1218.7072      1.9827128    
   1775000   302.09068     -2662.6154      1195.2735      1234.0829      25.762477    
   1780000   300.01204     -2704.4491      1183.7409      1162.1286      9.3791281    
   1785000   295.14616     -2649.4131      1230.3426      1220.2534     -10.44072     
   1790000   299.34112     -2657.1094      1247.5913      1267.3188      29.416024    
   1795000   305.3627      -2623.6595      1246.5394      1353.5645     -25.903567    
   1800000   296.62022     -2655.0358      1252.7279      1250.1977     -10.875803    
   1805000   300.96276     -2662.845       1257.9984      1286.4919     -3.892992     
   1810000   301.26129     -2674.2136      1211.906       1231.7005     -9.008753     
   1815000   301.9502      -2666.2712      1227.7191      1261.6165      6.8916382    
   1820000   294.77182     -2671.6784      1253.6863      1217.9842     -9.2991806    
   1825000   296.5515      -2666.0748      1242.704       1228.5203     -14.091268    
   1830000   304.89009     -2684.5115      1226.5607      1268.5075     -7.0725547    
   1835000   300.45369     -2692.4297      1232.7374      1227.0937     -9.2359882    
   1840000   304.3263      -2714.9951      1237.5075      1243.9292      7.4001233    
   1845000   298.36265     -2686.5482      1274.1154      1255.6544      23.716453    
   1850000   302.26321     -2672.6642      1243.2258      1273.5292     -18.416959    
   1855000   304.3607      -2640.8481      1244.3649      1325.2411      16.515869    
   1860000   293.53631     -2652.1374      1237.0515      1209.842       12.802774    
   1865000   300.09623     -2649.3361      1187.3075      1221.5611     -4.5812581    
   1870000   301.59613     -2663.6493      1260.2607      1293.6138     -30.391249    
   1875000   305.11564     -2670.4958      1243.5411      1301.5206     -10.24904     
   1880000   296.27586     -2681.9059      1208.4583      1175.9786      35.755811    
   1885000   293.27941     -2664.6335      1226.9162      1184.9134     -7.1672075    
   1890000   301.13107     -2651.5924      1177.0909      1218.3421     -11.185504    
   1895000   298.00554     -2662.8294      1256.324       1258.3883      27.976565    
   1900000   307.12933     -2666.788       1184.8358      1264.5304      7.2531302    
   1905000   298.16112     -2650.6439      1224.8167      1240.4578      0.0759397    
   1910000   299.78324     -2623.9629      1210.4991      1267.3269     -16.473777    
   1915000   298.1143      -2613.9057      1242.847       1294.8077      0.25036758   
   1920000   311.6262      -2629.3368      1273.9075      1431.2662      1.0658425    
   1925000   303.63952     -2637.3147      1235.9933      1313.9537     -4.6923272    
   1930000   295.73009     -2618.8336      1245.7062      1271.4182      8.7651271    
   1935000   302.65874     -2633.9534      1240.6961      1313.2474     -0.54683647   
   1940000   299.99855     -2638.0147      1265.4869      1310.1883      11.63531     
   1945000   299.3225      -2646.8621      1301.4492      1331.2577      17.420631    
   1950000   308.80233     -2630.8353      1224.8383      1355.4462      6.5797861    
   1955000   302.0363      -2631.5515      1225.9475      1295.3346     -6.2892226    
   1960000   292.15048     -2629.5481      1233.5807      1216.568       11.363553    
   1965000   303.11574     -2622.165       1270.4865      1358.9128      4.367336     
   1970000   304.00281     -2614.9782      1177.932       1281.4777      6.6485246    
   1975000   300.52747     -2625.6583      1229.1268      1290.9145      11.037852    
   1980000   301.98596     -2592.9845      1248.683       1356.1868      24.87591     
   1985000   297.53738     -2569.9589      1264.7294      1355.4777     -7.262467     
   1990000   306.47765     -2602.7822      1246.7631      1384.6359     -7.5956283    
   1995000   298.94411     -2553.9174      1253.1928      1372.5623      6.8165606    
   2000000   300.44837     -2588.8638      1202.5835      1300.4583      7.1347583    
   2005000   291.8377      -2606.839       1213.9975      1216.8967     -9.9597129    
   2010000   301.86605     -2612.2102      1261.6298      1348.8357     -5.1770938    
   2015000   302.22186     -2640.2676      1209.6247      1271.9549      13.082837    
   2020000   297.51808     -2648.8355      1222.4679      1234.167      -12.678502    
   2025000   303.52848     -2590.6947      1277.2579      1400.8455      6.4706986    
   2030000   306.82532     -2631.8518      1245.0954      1357.0076      24.987302    
   2035000   308.8895      -2600.051       1291.5592      1453.7309      4.9313295    
   2040000   308.97859     -2626.2937      1252.1843      1388.91        14.541229    
   2045000   295.1974      -2571.0371      1242.9304      1311.6754      15.348724    
   2050000   299.9232      -2619.0001      1221.7831      1284.8253      26.374839    
   2055000   300.12007     -2611.5146      1195.9584      1268.2465     -10.725116    
   2060000   295.56243     -2592.7151      1238.7108      1289.0421      0.85669515   
   2065000   296.61591     -2612.2395      1240.1227      1280.3503      6.6966076    
   2070000   305.26676     -2585.9316      1256.4899      1400.385      -4.2390406    
   2075000   305.63828     -2560.7489      1201.037       1373.4371      25.194277    
   2080000   298.52354     -2569.7814      1242.0241      1341.7686      8.8204106    
   2085000   306.94397     -2601.6033      1201.1442      1344.3659      1.5138047    
   2090000   304.35895     -2582.5915      1215.7689      1354.886      -3.1019111    
   2095000   297.24604     -2613.3057      1215.286       1260.0823      16.071411    
   2100000   299.60063     -2634.7162      1244.4089      1288.8504      1.1378366    
   2105000   300.74374     -2629.3855      1235.0944      1295.0888      15.96106     
   2110000   299.7417      -2633.6101      1219.962       1266.7711      15.034608    
   2115000   293.99193     -2610.9082      1229.3326      1247.4268      3.2254894    
   2120000   297.10807     -2611.2183      1246.568       1292.2179      5.6931571    
   2125000   301.87097     -2597.4798      1213.16        1315.1403      16.012452    
   2130000   303.50013     -2619.3255      1233.2366      1327.9398     -24.225272    
   2135000   306.66212     -2598.7438      1249.9472      1393.508       15.279945    
   2140000   302.27558     -2574.1857      1262.0521      1390.9447     -21.171331    
   2145000   302.69298     -2557.7945      1219.4068      1368.4231      15.866399    
   2150000   304.76573     -2591.0322      1239.7151      1374.0292      19.925717    
   2155000   292.84614     -2550.4683      1239.5377      1307.8255      2.3115593    
   2160000   297.4223      -2533.6015      1245.9497      1372.0263      10.106307    
   2165000   300.17908     -2559.9478      1224.7108      1349.0935      7.7198367    
   2170000   301.20081     -2532.6096      1229.8589      1390.7166      0.058199807  
   2175000   297.12163     -2586.4843      1288.5017      1359.0068     -3.0865644    
   2180000   301.00904     -2570.0321      1271.7332      1393.4535      27.800308    
   2185000   294.20172     -2560.3108      1244.9862      1315.5537      21.127406    
   2190000   291.24352     -2573.1791      1250.5378      1281.7834      5.8356977    
   2195000   296.59698     -2571.8756      1242.2468      1322.669       2.7003774    
   2200000   300.03709     -2586.9428      1246.2285      1342.3464     -20.82846     
   2205000   294.93116     -2557.4109      1203.0671      1283.0575      14.205969    
   2210000   299.75003     -2590.6504      1290.8194      1380.6627     -12.151595    
   2215000   290.63981     -2565.8048      1202.0228      1235.2442      14.986284    
   2220000   296.13821     -2584.7022      1223.0392      1286.5322      4.2311245    
   2225000   300.64939     -2583.9578      1247.7819      1352.3603     -1.5622594    
   2230000   303.69585     -2567.3485      1240.3281      1388.7585     -2.9371951    
   2235000   293.82851     -2579.3211      1245.2329      1293.4528      3.1273596    
   2240000   300.01458     -2541.9057      1236.5512      1377.5049      26.285642    
   2245000   298.14566     -2541.5573      1270.7599      1395.3494     -3.0307061    
   2250000   301.51904     -2598.1184      1197.0031      1295.1976      18.227299    
   2255000   296.57697     -2608.5302      1199.0165      1242.6051      14.620427    
   2260000   307.05569     -2593.1249      1203.2786      1355.9777     -2.4206848    
   2265000   303.05617     -2589.9944      1265.7454      1385.8097      4.8533763    
   2270000   298.42003     -2588.5274      1205.3376      1285.4104      22.016344    
   2275000   300.26776     -2611.4165      1291.3475      1365.0545      4.1553546    
   2280000   301.18445     -2575.4729      1244.8256      1362.6737     -28.051767    
   2285000   304.18007     -2594.9226      1258.9762      1384.1626      2.889214     
   2290000   297.70958     -2603.1611      1219.5132      1278.5993     -21.094077    
   2295000   301.58614     -2639.6243      1215.4011      1272.6898     -5.4022359    
   2300000   304.088       -2631.9159      1253.1209      1340.4907      8.4343976    
   2305000   297.67829     -2592.1395      1234.678       1304.5058      5.9141661    
   2310000   300.48002     -2634.088       1242.493       1295.4265      32.092444    
   2315000   303.96169     -2611.1961      1249.8054      1356.7654     -0.32476504   
   2320000   297.72593     -2650.9946      1209.7954      1221.1941      39.18506     
   2325000   298.17969     -2669.3549      1171.8837      1168.9798      15.932859    
   2330000   299.14911     -2624.5901      1260.6408      1311.1707     -7.0071921    
   2335000   301.17719     -2618.9106      1243.7195      1318.0649      25.852508    
   2340000   300.72516     -2598.8574      1236.0848      1326.4412      0.7810002    
   2345000   298.28357     -2601.6278      1317.2645      1383.0167     -4.0492056    
   2350000   305.73788     -2602.2004      1170.1485      1301.9877      3.5374963    
   2355000   303.27553     -2593.4799      1175.2147      1293.755       0.95096929   
   2360000   298.71698     -2627.1925      1235.8088      1279.872       0.154557     
   2365000   307.46517     -2621.9547      1212.5073      1340.0384      12.232677    
   2370000   298.72798     -2606.3978      1212.6917      1277.648       25.270047    
   2375000   300.91947     -2629.2029      1185.5216      1247.27       -6.0505969    
   2380000   305.07989     -2639.3619      1248.7363      1337.53       -5.8240938    
   2385000   301.81516     -2632.7384      1193.0073      1259.2299      17.753481    
   2390000   304.16156     -2625.1917      1201.8094      1296.5613      0.10752891   
   2395000   295.41321     -2622.1043      1224.5752      1244.1828      23.487394    
   2400000   295.12315     -2621.454       1244.4812      1262.1453      8.857715     
   2405000   298.89471     -2624.5531      1219.1186      1267.4106     -14.66115     
   2410000   299.78159     -2634.5758      1192.9383      1239.1384     -3.5048826    
   2415000   302.55842     -2610.7492      1301.3928      1396.2511      13.498339    
   2420000   294.8761      -2599.698       1202.4504      1239.6613      9.9353726    
   2425000   302.73309     -2637.0506      1247.0811      1317.2001      7.7119037    
   2430000   305.76987     -2604.9062      1252.7083      1382.1278      29.236075    
   2435000   297.47425     -2647.407       1246.8372      1259.5729      17.507337    
   2440000   294.86968     -2647.7075      1228.4841      1217.6281     -6.5038232    
   2445000   302.38974     -2642.4161      1260.2521      1321.9351     -4.2879902    
   2450000   301.17593     -2630.183       1253.1818      1316.2436     -6.4614288    
   2455000   299.0847      -2635.2209      1225.9813      1265.3045      2.3270112    
   2460000   301.73007     -2675.0036      1215.9791      1239.1756      7.4641197    
   2465000   306.46966     -2628.6141      1245.3403      1357.3097      6.6921038    
   2470000   306.78411     -2611.2434      1259.5699      1391.722       3.7540121    
   2475000   298.80108     -2592.6004      1237.0688      1316.4762      4.4472967    
   2480000   302.32029     -2594.2794      1230.5987      1339.7974     -1.4948347    
   2485000   293.14119     -2596.4801      1208.2578      1233.1723     -1.8705944    
   2490000   300.22952     -2613.7846      1235.5029      1306.4998      0.26732784   
   2495000   292.85027     -2624.5462      1252.5115      1246.7584      13.808299    
   2500000   302.14614     -2599.385       1194.8339      1297.3696      37.166942    
   2505000   307.34159     -2635.1506      1231.4676      1344.6977      9.6215313    
   2510000   287.21563     -2632.5973      1245.8506      1181.659      -0.96220062   
   2515000   303.48279     -2573.8257      1218.6143      1358.6622      26.969425    
   2520000   292.35579     -2616.7659      1236.661       1234.2663      4.2666588    
   2525000   310.22821     -2596.3279      1295.8596      1473.7257      18.130233    
   2530000   296.24326     -2588.0834      1199.1579      1260.2091     -3.52367      
   2535000   294.84971     -2597.6886      1262.0497      1301.034      -4.767458     
   2540000   298.42933     -2590.0751      1207.7738      1286.3821      9.8667823    
   2545000   300.54056     -2580.7596      1238.9036      1345.7069      24.112089    
   2550000   293.69948     -2576.9853      1175.1194      1224.5211      16.513218    
   2555000   292.97079     -2587.1176      1197.2983      1230.0515      10.748591    
   2560000   300.25429     -2591.2869      1228.3247      1322.0408      25.077409    
   2565000   300.09739     -2578.4069      1230.507       1335.7001      4.3808042    
   2570000   305.83661     -2552.2947      1256.1348      1438.7626     -12.029338    
   2575000   302.03156     -2563.2012      1213.8947      1351.5897      10.551768    
   2580000   301.52791     -2580.9751      1309.0128      1424.4299      8.9447105    
   2585000   302.35065     -2580.0742      1248.9976      1372.6729      17.877959    
   2590000   300.14076     -2596.3066      1307.5598      1395.241       13.803029    
   2595000   301.7599      -2566.5428      1215.0368      1346.9608     -18.438822    
   2600000   301.61655     -2599.3401      1196.6121      1294.4569      12.845777    
   2605000   307.7705      -2555.2435      1199.0354      1396.0082      13.989904    
   2610000   298.35574     -2617.9894      1218.9566      1268.9925     -8.0127884    
   2615000   298.89951     -2611.9554      1305.5376      1366.4703     -4.2206094    
   2620000   303.97223     -2605.0354      1227.5889      1340.8039     -11.685289    
   2625000   290.13385     -2580.1444      1271.8197      1286.1769      12.842912    
   2630000   306.35703     -2591.2431      1225.7709      1374.1041      7.0074151    
   2635000   298.33396     -2580.5749      1238.5076      1325.7634     -0.79657384   
   2640000   297.78037     -2598.2366      1261.6029      1326.2464     -1.1132709    
   2645000   310.90451     -2600.2625      1250.0267      1430.0061     -1.2997049    
   2650000   299.2862      -2616.0286      1277.8138      1338.1311     -3.3438093    
   2655000   301.08481     -2566.2509      1260.1233      1386.3023     -23.111395    
   2660000   301.50634     -2586.5605      1234.5892      1344.228       8.6439587    
   2665000   305.55495     -2580.9138      1197.9403      1349.4303      6.0857101    
   2670000   302.65625     -2566.6341      1192.8002      1332.6484     -8.0470851    
   2675000   299.75542     -2573.5209      1204.8983      1311.9194      1.9181638    
   2680000   297.00993     -2594.1774      1254.8998      1316.7131     -10.676026    
   2685000   301.63062     -2587.6715      1210.9426      1320.5817     -14.638588    
   2690000   292.7606      -2593.7102      1246.0453      1270.3264      10.168945    
   2695000   296.36531     -2567.8395      1241.117       1323.5036      30.444941    
   2700000   297.71754     -2585.2207      1196.8792      1273.9769      4.940797     
   2705000   300.8234      -2608.6749      1280.7495      1362.1668     -11.036861    
   2710000   301.65501     -2589.8986      1247.0588      1354.689       9.5464807    
   2715000   296.45196     -2581.1424      1189.667       1259.5255      5.0749747    
   2720000   297.30713     -2606.6915      1233.9582      1285.915       5.7876162    
   2725000   297.66142     -2580.1436      1258.8473      1340.5202     -0.5196743    
   2730000   297.67873     -2594.2165      1264.3966      1332.1514     -4.1638113    
   2735000   297.45223     -2618.6222      1246.4512      1287.7748      15.287521    
   2740000   294.50361     -2608.3719      1197.7643      1222.9704      29.899297    
   2745000   296.31765     -2596.8686      1281.5539      1334.4851      16.705487    
   2750000   303.34038     -2606.464       1240.7254      1346.8616      7.0973907    
   2755000   298.61138     -2594.078       1220.6881      1296.9216      7.3264809    
   2760000   300.01388     -2613.2251      1212.753       1282.3811      7.8184885    
   2765000   306.91109     -2611.3437      1230.682       1363.8693      13.226377    
   2770000   297.0179      -2595.5554      1252.1556      1312.6621     -21.481567    
   2775000   300.98535     -2589.7531      1213.8657      1315.6531      26.875063    
   2780000   298.25544     -2594.2957      1227.2726      1300.1054      30.015372    
   2785000   294.11185     -2585.6005      1231.5703      1276.0445     -9.4047924    
   2790000   294.54163     -2582.0992      1283.2541      1335.0728     -17.35731     
   2795000   294.75752     -2600.3752      1214.5425      1250.0158     -0.87194685   
   2800000   296.62212     -2568.5665      1245.581       1329.5371      13.696252    
   2805000   306.43212     -2578.3395      1247.1196      1409.028       1.5471934    
   2810000   298.73913     -2596.6695      1232.6341      1307.4184      12.845174    
   2815000   305.25265     -2566.6363      1226.072       1389.1363      2.8691506    
   2820000   304.06403     -2570.5169      1229.1698      1377.7242      26.206555    
   2825000   302.11042     -2575.3236      1217.8702      1344.148       10.33194     
   2830000   303.4205      -2570.8402      1216.4096      1358.886       2.7636715    
   2835000   305.28612     -2544.0004      1213.6716      1399.6709      6.0945946    
   2840000   300.30372     -2568.0537      1232.7845      1350.1758     -2.1108298    
   2845000   307.219       -2578.9979      1253.9718      1422.2584      4.1019095    
   2850000   307.17901     -2568.1312      1226.1415      1404.9372     -7.8074864    
   2855000   295.32589     -2606.0266      1234.1702      1269.0748     -4.8315376    
   2860000   294.18032     -2607.9272      1212.4222      1235.182       1.75069      
   2865000   302.69198     -2616.4181      1233.9818      1324.3656     -19.920263    
   2870000   302.05554     -2626.161       1253.0002      1327.9497      26.618443    
   2875000   301.87942     -2619.6131      1248.9712      1328.8938      1.5156571    
   2880000   292.24733     -2612.7872      1220.7485      1221.3626      18.161769    
   2885000   301.85456     -2627.256       1227.1304      1299.1877      0.82056641   
   2890000   298.72374     -2653.1063      1174.5594      1192.7692      10.561533    
   2895000   301.93491     -2643.5639      1231.8594      1288.3274     -0.72277523   
   2900000   291.55132     -2663.8016      1293.6269      1237.0027     -26.598863    
   2905000   304.06886     -2648.4439      1228.2335      1298.9041      7.0453953    
   2910000   299.89604     -2640.3604      1199.0916      1240.5305      13.324105    
   2915000   298.49195     -2627.3125      1235.2947      1277.2255     -13.934546    
   2920000   294.84486     -2635.4228      1227.8961      1229.103      -3.220597     
   2925000   298.78245     -2626.0938      1238.206       1283.9534     -4.9217827    
   2930000   303.67056     -2615.8663      1192.8313      1292.5177     -17.886069    
   2935000   308.73774     -2575.2188      1214.2144      1399.8613     -10.560246    
   2940000   300.87415     -2608.5817      1173.5157      1255.4801     -1.2419949    
   2945000   306.94959     -2594.2478      1222.4776      1373.105       16.745436    
   2950000   295.26253     -2608.4241      1200.4224      1232.3629      7.8590181    
   2955000   298.28179     -2610.9039      1224.706       1281.1662     -0.5529527    
   2960000   290.57759     -2614.8755      1233.3433      1216.9375      5.4767124    
   2965000   301.56027     -2631.5803      1278.747       1343.8483      10.660849    
   2970000   300.57251     -2611.3526      1217.1368      1293.6329      9.9250766    
   2975000   299.87826     -2617.9257      1232.022       1295.7367     -0.18060619   
   2980000   294.6703      -2671.1003      1217.7927      1181.761       35.433256    
   2985000   301.20068     -2637.1255      1235.4401      1291.7807      2.6797106    
   2990000   299.84701     -2651.5782      1219.8476      1249.6303      2.5046145    
   2995000   300.29406     -2647.9838      1198.3995      1235.7743      11.979735    
   3000000   299.43533     -2657.0165      1191.6769      1212.3399     -3.2519644    
   3005000   302.25305     -2678.9442      1229.975       1253.9075     -1.4580591    
   3010000   303.68498     -2634.8626      1239.7589      1320.578       5.3217775    
   3015000   303.60831     -2640.8987      1218.2112      1292.3086      14.171216    
   3020000   299.3074      -2662.9553      1187.7981      1201.3783      2.8255508    
   3025000   302.38493     -2644.5743      1230.2531      1289.735      -11.15545     
   3030000   296.26017     -2616.0537      1228.0248      1261.2569      3.0201314    
   3035000   297.64887     -2570.4058      1270.6357      1361.934       9.1663464    
   3040000   300.93776     -2588.7028      1266.9583      1369.3705      6.1637864    
   3045000   297.63209     -2606.079       1229.867       1285.3422      10.648163    
   3050000   296.74747     -2595.3249      1235.6063      1293.925      -16.540181    
   3055000   303.93972     -2599.1234      1195.7247      1314.561      -0.82881315   
   3060000   306.55822     -2590.3325      1268.4007      1419.4437     -9.1955527    
   3065000   307.4341      -2592.4341      1270.6671      1427.441      -2.3626438    
   3070000   297.10984     -2555.8547      1249.5186      1350.5479      13.172686    
   3075000   297.33302     -2585.7994      1223.634       1296.7144      2.4383353    
   3080000   298.09151     -2588.7964      1252.2526      1329.1187      18.26399     
   3085000   298.704       -2591.0788      1223.5603      1303.6211     -9.4873572    
   3090000   293.41941     -2609.4811      1204.1571      1218.5586     -19.004764    
   3095000   292.95209     -2579.6218      1225.8111      1265.8929      1.0808483    
   3100000   295.34388     -2619.1611      1217.4698      1239.4008     -19.911896    
   3105000   299.34836     -2626.713       1206.4306      1256.6195     -5.5092846    
   3110000   301.14313     -2631.6201      1234.8838      1296.2151      8.7563984    
   3115000   292.71969     -2616.1989      1249.1652      1250.5916     -9.1256856    
   3120000   302.38843     -2617.8422      1252.5352      1338.7804      35.896732    
   3125000   291.726       -2615.1783      1245.1718      1238.7329      17.573765    
   3130000   299.74185     -2612.493       1233.4132      1301.3407     -5.4802163    
   3135000   293.21327     -2597.6503      1237.1016      1261.4905     -17.089872    
   3140000   299.21315     -2573.4204      1237.0175      1339.2898      16.733809    
   3145000   303.1903      -2568.235       1231.6089      1374.632       4.928074     
   3150000   301.47539     -2575.0647      1251.1692      1372.0271      6.626186     
   3155000   295.48045     -2559.307       1254.478       1337.4843      17.053066    
   3160000   305.91477     -2557.5638      1248.2338      1426.2914      11.899559    
   3165000   308.39816     -2578.553       1191.1443      1370.4203     -4.6291369    
   3170000   292.81178     -2562.1205      1220.388       1276.7164     -15.029525    
   3175000   300.58077     -2557.5818      1236.5788      1366.9196      0.63145335   
   3180000   301.58579     -2574.1854      1225.1354      1347.8599     -4.1792416    
   3185000   308.75686     -2554.3701      1203.4069      1410.0735      15.361572    
   3190000   310.1212      -2599.6156      1231.6915      1405.3131     -1.3439396    
   3195000   300.89676     -2617.9769      1252.1171      1324.8884      3.702415     
   3200000   294.7131      -2553.077       1217.304       1299.6783     -5.8590156    
   3205000   292.97759     -2555.7204      1242.0052      1306.2165      23.119448    
   3210000   290.25023     -2555.4231      1253.0866      1293.206       16.402334    
   3215000   300.96387     -2556.3124      1256.1858      1391.2218      2.5360307    
   3220000   299.51712     -2543.7707      1232.1518      1366.7921     -37.916272    
   3225000   300.02514     -2553.6501      1234.0783      1363.382       0.95552587   
   3230000   297.33381     -2531.358       1214.5182      1342.0469     -2.168181     
   3235000   301.05213     -2541.7967      1293.7849      1444.1259      11.389798    
   3240000   296.92533     -2526.5132      1283.1793      1411.9001      10.295721    
   3245000   303.98338     -2552.3144      1219.1149      1385.1506      19.734538    
   3250000   302.91546     -2580.873       1214.272       1342.1994     -20.277514    
   3255000   294.16024     -2580.2005      1210.3039      1260.6107     -23.13327     
   3260000   299.35727     -2595.8502      1244.7469      1325.8782      20.998556    
   3265000   306.3549      -2555.6353      1226.9677      1410.8898      13.798649    
   3270000   305.20094     -2580.0553      1258.257       1407.4397     -6.3638849    
   3275000   298.21395     -2583.9771      1242.6392      1325.4196      18.025784    
   3280000   295.95712     -2608.0789      1265.6741      1304.1711      6.23694      
   3285000   296.76748     -2614.1529      1245.942       1285.6115      3.9619148    
   3290000   303.40565     -2611.9041      1229.1211      1330.4009      0.8061113    
   3295000   300.62364     -2605.9459      1249.2987      1331.6587      31.672998    
   3300000   299.48615     -2647.8057      1220.6255      1250.9538      12.503342    
   3305000   298.6851      -2601.4653      1214.8389      1284.3442     -1.4988095    
   3310000   297.99016     -2594.7696      1187.1565      1257.1431      10.376735    
   3315000   307.18397     -2599.9932      1222.3847      1369.3626     -10.752836    
   3320000   299.16422     -2636.3451      1233.0066      1271.9166      18.256548    
   3325000   304.26404     -2631.5231      1247.979       1337.3158      7.3726659    
   3330000   296.77235     -2572.8591      1225.2777      1306.2846     -7.4738624    
   3335000   305.80503     -2629.9209      1260.9812      1365.7004      2.0100744    
   3340000   296.98901     -2635.2371      1238.1586      1258.7249     -6.0646793    
   3345000   299.9563      -2628.8774      1206.3635      1259.8243     -10.90834     
   3350000   302.17586     -2631.8135      1214.326       1284.6989     -11.602469    
   3355000   299.81233     -2590.2456      1218.0759      1308.8811      15.880581    
   3360000   302.7641      -2644.822       1299.629       1362.2538      20.203443    
   3365000   295.14494     -2656.1326      1272.4618      1255.6422     -1.43538      
   3370000   296.6723      -2616.7255      1242.2733      1278.5191      4.7186622    
   3375000   304.68166     -2619.3081      1287.3876      1392.6739     -9.1736516    
   3380000   302.2189      -2593.4213      1266.9778      1376.1279     -21.353666    
   3385000   306.96562     -2594.9351      1264.3867      1414.4702      4.082619     
   3390000   290.94675     -2595.3786      1222.988       1229.3804      15.552347    
   3395000   302.95853     -2623.1973      1241.8731      1327.8614     -2.5362274    
   3400000   308.04264     -2615.1919      1260.386       1399.8439      14.406234    
   3405000   288.86523     -2640.1057      1216.5474      1159.5989      7.8925277    
   3410000   296.8921      -2647.9168      1245.9393      1252.9593      5.5348001    
   3415000   304.02556     -2601.9278      1189.8236      1306.6232      26.009215    
   3420000   295.10291     -2597.825       1238.0419      1279.1541      3.4345088    
   3425000   291.46955     -2598.1371      1272.5764      1280.8853      3.1576899    
   3430000   301.2369      -2625.363       1184.242       1252.669       16.275508    
   3435000   298.97409     -2648.8644      1245.2223      1269.9128     -0.27889074   
   3440000   288.16072     -2680.3734      1224.3029      1120.7866     -14.552779    
   3445000   295.66794     -2673.5642      1249.6275      1220.0532     -9.9814724    
   3450000   302.46569     -2651.3481      1276.3795      1329.8097     -19.286779    
   3455000   297.89859     -2657.2798      1218.0831      1224.7406      14.48353     
   3460000   295.47855     -2654.02        1280.6601      1268.9364     -9.9089775    
   3465000   304.83392     -2665.6965      1208.0835      1268.3431      21.727556    
   3470000   301.01804     -2638.3387      1241.3637      1294.8578     -4.3992638    
   3475000   302.16116     -2672.4796      1242.9659      1272.5414     -10.734905    
   3480000   301.09253     -2673.3476      1263.4413      1282.5927      7.068672     
   3485000   303.4568      -2684.8307      1204.991       1233.8015      8.6136464    
   3490000   294.66462     -2632.0818      1219.1955      1222.1314      12.887751    
   3495000   300.26866     -2627.2444      1235.6645      1293.5516      17.26551     
   3500000   303.0389      -2623.9871      1227.748       1313.6652     -2.4163588    
   3505000   301.61004     -2642.657       1225.5348      1280.0045      16.721213    
   3510000   304.13749     -2611.92        1168.0461      1275.8543     -5.4283547    
   3515000   304.90702     -2605.8415      1198.706       1319.4742      14.752861    
   3520000   297.51154     -2621.824       1238.0029      1276.6551     -0.9000826    
   3525000   298.33478     -2587.5621      1247.7441      1328.0199      18.387244    
   3530000   291.87094     -2614.9834      1271.3781      1266.4303      44.394463    
   3535000   290.15291     -2604.581       1211.7397      1201.8308      25.552592    
   3540000   298.48295     -2608.9293      1200.2378      1260.4715     -13.562964    
   3545000   301.66907     -2600.9316      1182.7807      1279.5036      26.101405    
   3550000   291.76661     -2578.1664      1222.0909      1253.0269     -2.5718351    
   3555000   304.85589     -2561.1139      1254.0207      1419.0593      3.996405     
   3560000   302.75493     -2630.6793      1268.1664      1344.852      -0.3631989    
   3565000   301.59886     -2573.8433      1213.032       1336.2154     -7.2232188    
   3570000   297.42089     -2577.1278      1260.0055      1342.5433     -10.918749    
   3575000   299.30125     -2563.0889      1239.0444      1352.436      -11.070255    
   3580000   306.88379     -2568.6545      1259.3639      1434.9963     -9.8781555    
   3585000   300.93789     -2560.083       1272.184       1403.217      -1.415163     
   3590000   296.99033     -2543.4536      1192.7546      1305.1163      14.236918    
   3595000   298.54975     -2569.3671      1238.5048      1338.898       16.254019    
   3600000   299.62801     -2595.4392      1221.6611      1305.6245      5.8360668    
   3605000   298.70723     -2575.2231      1227.9548      1323.9003      6.8428111    
   3610000   297.36451     -2572.0407      1243.2567      1330.3774      18.703674    
   3615000   295.02672     -2620.451       1194.0624      1211.8672      11.929521    
   3620000   295.5363      -2595.9031      1244.7591      1291.6687      6.6424696    
   3625000   315.00349     -2601.4658      1223.5963      1439.0272      0.56935502   
   3630000   301.84243     -2624.7573      1276.975       1351.4226      10.48491     
   3635000   300.13411     -2629.6579      1246.3184      1300.5889      0.23405389   
   3640000   302.76587     -2601.8476      1268.2512      1373.8662      30.207124    
   3645000   308.3276      -2582.7872      1236.7739      1411.1848      22.42336     
   3650000   308.5382      -2616.5974      1257.1483      1399.6322     -5.9430265    
   3655000   298.80739     -2607.4487      1226.5807      1291.1962      21.442873    
   3660000   301.3022      -2623.6299      1198.8693      1269.6133     -2.9165017    
   3665000   294.47628     -2608.3473      1257.0187      1282.0049      6.2144859    
   3670000   304.36733     -2610.9461      1189.5942      1300.4317      2.0141948    
   3675000   295.44318     -2625.4597      1208.8678      1225.3882      5.0517292    
   3680000   304.04467     -2602.6353      1226.9692      1343.2321      35.934061    
   3685000   305.46772     -2606.2434      1248.3002      1373.6805     -10.650221    
   3690000   301.68743     -2605.3232      1230.5246      1323.0202      11.124307    
   3695000   302.17275     -2581.1661      1204.3578      1325.3504     -7.1127667    
   3700000   298.42531     -2617.9399      1221.3554      1272.0629     -1.7115598    
   3705000   290.35475     -2603.3002      1235.1293      1228.3061      14.932696    
   3710000   300.54208     -2592.0836      1222.8123      1318.3053     -13.739158    
   3715000   297.59199     -2605.6755      1253.4287      1308.9489      9.0130034    
   3720000   300.77005     -2570.0204      1202.2742      1321.869       17.937601    
   3725000   296.91647     -2571.1246      1217.6187      1301.6489      6.5168847    
   3730000   293.91097     -2572.2055      1215.8542      1271.9271      25.429089    
   3735000   303.85119     -2594.7058      1216.1626      1338.6249      28.035604    
   3740000   299.98008     -2577.3457      1253.1066      1358.3119     -6.4943514    
   3745000   298.49404     -2581.6731      1297.7289      1385.3179      14.419168    
   3750000   305.51321     -2555.4733      1231.8121      1408.3693     -0.14577707   
   3755000   301.87525     -2550.9519      1291.499       1440.0453     -14.521481    
   3760000   302.15617     -2591.5274      1240.6842      1351.1673      20.376827    
   3765000   300.47924     -2545.9857      1236.0681      1377.097      -14.974849    
   3770000   302.0668      -2553.2197      1246.1558      1394.1474     -1.9813156    
   3775000   295.13113     -2554.1009      1262.2048      1347.2934     -16.28473     
   3780000   302.63054     -2556.0531      1232.6911      1382.8905      40.300472    
   3785000   305.74507     -2556.9515      1219.4141      1396.5664      13.827155    
   3790000   298.73696     -2575.1444      1147.1528      1243.4428      18.588082    
   3795000   304.603       -2579.0543      1204.6643      1349.501      -23.923582    
   3800000   300.56694     -2584.9038      1243.5197      1346.4147     -2.2097433    
   3805000   300.03958     -2590.3568      1246.6516      1339.3779     -6.956777     
   3810000   298.18711     -2583.2397      1262.498       1345.7757      13.010364    
   3815000   298.92444     -2523.8004      1203.6692      1352.9797      18.152948    
   3820000   306.70955     -2519.8418      1283.8541      1506.741      -12.446277    
   3825000   299.19744     -2525.8764      1242.372       1392.0479     -4.9671596    
   3830000   297.33343     -2516.9711      1251.2589      1393.1713      10.431216    
   3835000   302.49302     -2530.3522      1205.9551      1380.6256     -9.4543663    
   3840000   290.23301     -2533.365       1213.342       1275.3655     -11.91426     
   3845000   301.13688     -2529.8557      1191.0708      1354.1107      6.4237337    
   3850000   299.70172     -2542.5199      1247.3917      1384.9335     -11.505833    
   3855000   297.31268     -2545.5767      1228.8168      1341.938       28.660058    
   3860000   296.77517     -2524.0132      1240.31        1370.1881     -0.61112047   
   3865000   292.44        -2539.3171      1215.8835      1291.6907      16.664451    
   3870000   303.96683     -2528.3973      1281.7141      1471.519       1.432474     
   3875000   302.30663     -2540.6722      1209.7718      1372.4555      16.545473    
   3880000   297.42782     -2526.6579      1221.2664      1354.336       0.83933242   
   3885000   307.21174     -2541.2425      1228.8869      1434.8639     -6.2489247    
   3890000   302.89081     -2564.4404      1245.0254      1389.165       19.761748    
   3895000   293.51332     -2585.0039      1240.758       1280.4765      15.796502    
   3900000   303.07695     -2596.769       1233.2084      1346.6839     -7.4263733    
   3905000   297.36648     -2588.4426      1257.1756      1327.9121      2.6088073    
   3910000   300.67249     -2581.9551      1215.4588      1322.2465      21.881991    
   3915000   303.48226     -2555.1588      1194.0012      1352.7113      10.268328    
   3920000   303.2246      -2594.9454      1254.7938      1371.4133     -3.3487782    
   3925000   303.87832     -2577.3795      1275.1653      1415.1965     -0.045694437  
   3930000   292.80452     -2585.5538      1195.0238      1227.8539      9.6815256    
   3935000   306.2788      -2568.9563      1241.5583      1411.4787      14.528886    
   3940000   289.61813     -2561.228       1245.5968      1274.2587     -5.8185062    
   3945000   307.17362     -2592.1324      1248.6693      1403.4155     -28.568976    
   3950000   308.10934     -2569.5111      1256.2314      1441.9665      6.0951765    
   3955000   309.3834      -2574.9715      1249.8618      1441.5298     -13.611958    
   3960000   302.29815     -2598.6567      1251.4617      1356.0852     -1.9856899    
   3965000   300.55739     -2598.3795      1227.8581      1317.1921     -20.036835    
   3970000   304.12052     -2564.8185      1258.7488      1413.5069      7.5512383    
   3975000   303.40078     -2547.1303      1241.8597      1407.8697      12.412276    
   3980000   301.83075     -2549.506       1232.8031      1382.3975      12.504823    
   3985000   304.73686     -2587.6827      1231.4461      1368.8515      5.8165104    
   3990000   300.97428     -2558.9753      1260.7465      1393.2127     -8.7803181    
   3995000   306.48253     -2540.2563      1252.8914      1453.3338      11.244375    
   4000000   302.50857     -2552.1771      1236.5425      1389.5272      8.0441152    
   4005000   292.4824      -2580.2022      1231.456       1266.7572      11.506309    
   4010000   310.59395     -2563.9722      1271.8354      1485.3279     -17.504906    
   4015000   304.34754     -2564.5826      1274.8756      1431.8996      6.6430915    
   4020000   295.48356     -2594.7813      1251.2202      1298.78        6.326785     
   4025000   297.1595      -2580.8149      1223.4736      1299.9868      21.947241    
   4030000   294.74909     -2592.0208      1214.1928      1257.9452      25.581546    
   4035000   300.586       -2608.1552      1227.1099      1306.924      -5.2352482    
   4040000   301.78841     -2643.4676      1247.5511      1302.8052      32.75268     
   4045000   298.40596     -2609.9388      1273.4646      1332.0003      1.9541301    
   4050000   314.22621     -2646.2615      1260.9593      1424.6438     -10.208851    
   4055000   302.78139     -2621.2317      1206.1995      1292.5692      9.4262971    
   4060000   297.42187     -2642.0367      1301.4955      1319.1331     -4.0168463    
   4065000   303.41317     -2622.8022      1207.9573      1298.4062      24.918616    
   4070000   300.82643     -2645.0492      1208.7705      1253.8406     -4.8927593    
   4075000   305.4451      -2653.8544      1208.4714      1286.0384      25.540358    
   4080000   300.73676     -2618.9014      1204.3505      1274.7666     -15.785639    
   4085000   296.33751     -2604.5052      1262.4467      1307.9189      8.7154233    
   4090000   295.20942     -2593.9363      1311.6339      1357.5872     -8.9118709    
   4095000   301.19444     -2615.9969      1223.1679      1300.5812     -3.2671676    
   4100000   302.35702     -2608.6729      1235.973       1331.1067      12.240924    
   4105000   302.90428     -2593.8107      1237.1357      1352.0254     -11.823998    
   4110000   294.12811     -2653.1316      1201.7594      1178.8479     -12.789598    
   4115000   302.65912     -2623.8554      1233.9229      1316.5756      10.606201    
   4120000   303.52679     -2626.0747      1245.4069      1333.5993     -15.215779    
   4125000   299.56457     -2601.1751      1178.682       1256.3422     -14.146638    
   4130000   300.04642     -2620.2467      1218.6624      1281.5598     -6.8253757    
   4135000   299.74734     -2675.3451      1266.1812      1271.3057     -2.4334805    
   4140000   301.37039     -2625.295       1246.0036      1315.6922      12.401244    
   4145000   302.74728     -2616.2185      1232.3828      1323.4607      14.604847    
   4150000   298.98591     -2631.8267      1256.877       1298.7109     -4.7582371    
   4155000   305.43714     -2626.2734      1212.0021      1317.0789     -0.95792259   
   4160000   301.07243     -2636.7491      1212.8889      1268.459       6.6897075    
   4165000   300.2763      -2620.0084      1212.2315      1277.4229     -3.2685463    
   4170000   295.98048     -2634.055       1233.305       1246.0348      11.1484      
   4175000   304.64095     -2633.0502      1234.3661      1325.5463      0.76181971   
   4180000   298.83378     -2618.3442      1194.7733      1248.7294     -0.064643372  
   4185000   306.12332     -2590.17        1194.4937      1341.8102      26.04452     
   4190000   299.55288     -2578.3206      1248.5041      1348.9142      0.22683127   
   4195000   299.04147     -2608.0717      1244.3809      1310.4667      24.906689    
   4200000   302.89802     -2591.8529      1239.2797      1356.0711      2.744052     
   4205000   299.07289     -2579.4238      1294.6514      1389.6661      23.636271    
   4210000   294.4891      -2560.7578      1241.7025      1314.3929      26.706795    
   4215000   304.53257     -2564.6537      1212.7599      1371.3675      8.8774775    
   4220000   299.813       -2586.4085      1242.498       1337.1464      16.142813    
   4225000   308.16414     -2587.7137      1245.8637      1413.8862     -4.7572132    
   4230000   305.41296     -2529.949       1238.9304      1440.1154     -12.740504    
   4235000   296.93243     -2540.7686      1287.3594      1401.8883     -25.568062    
   4240000   302.59447     -2531.1112      1198.3403      1373.1591      25.956886    
   4245000   295.20166     -2564.8677      1228.7233      1303.6759      4.0897593    
   4250000   304.45301     -2510.0525      1261.2808      1473.7781     -0.0027473598 
   4255000   304.22694     -2495.9926      1255.9356      1480.4712      1.8413052    
   4260000   295.77411     -2532.7649      1226.129       1338.3034      1.9171808    
   4265000   293.6006      -2542.0468      1224.008       1307.464       15.896515    
   4270000   295.68458     -2557.4472      1234.9364      1321.6279      3.0016913    
   4275000   305.66603     -2543.6358      1246.7975      1436.5588      5.5181431    
   4280000   300.78995     -2536.8806      1208.6548      1361.5673      12.501318    
   4285000   303.42046     -2549.0533      1252.0384      1416.3014      16.064814    
   4290000   284.38313     -2554.213       1256.0768      1244.94        29.277737    
   4295000   294.7326      -2557.3694      1245.5491      1323.8053      37.601183    
   4300000   304.73791     -2582.8871      1264.1222      1406.3325      9.1390021    
   4305000   296.48096     -2583.9191      1223.8753      1291.2164      26.314417    
   4310000   305.3951      -2578.2102      1245.3249      1398.0891      0.20087255   
   4315000   301.85554     -2556.5622      1259.0713      1401.8311     -4.8261412    
   4320000   304.54462     -2531.7493      1240.1935      1431.8132      7.854911     
   4325000   291.73626     -2578.9828      1274.65        1304.4983     -31.199955    
   4330000   300.42541     -2576.7623      1217.3587      1327.1297      8.9116529    
   4335000   299.22657     -2583.5165      1272.6411      1364.9373     -1.4030979    
   4340000   303.50068     -2582.8631      1231.3028      1362.4733      29.746024    
   4345000   294.90076     -2570.9357      1256.7487      1322.9424      7.7456646    
   4350000   296.23089     -2567.7528      1297.1866      1378.4578      12.845193    
   4355000   309.34296     -2567.9114      1245.3946      1443.761       12.563103    
[...]
  23945000   302.58098     -2653.419       1184.1733      1236.5636      3.2990237    
  23950000   303.11595     -2622.6782      1215.7753      1303.6903     -18.648911    
  23955000   302.76464     -2589.7026      1216.8887      1334.6378      10.637862    
  23960000   302.35376     -2633.8275      1212.3777      1282.3275      4.9873765    
  23965000   296.54083     -2613.7398      1187.0147      1225.0706     -5.817647     
  23970000   297.39338     -2617.1441      1243.4394      1285.7148      5.8020945    
  23975000   291.90809     -2615.1995      1178.3047      1173.4729      3.4453486    
  23980000   303.76492     -2612.0359      1168.327       1272.6876      7.4297254    
  23985000   296.40909     -2619.5989      1213.6537      1244.6725      14.425176    
  23990000   296.44329     -2628.6419      1194.8503      1217.1317      0.56922026   
  23995000   307.57263     -2615.1733      1203.6814      1338.9548      5.9664124    
  24000000   297.27181     -2654.6641      1235.9797      1239.648       11.051036    
  24005000   293.62254     -2632.589       1247.1008      1240.2108      24.08434     
  24010000   306.96662     -2636.3689      1245.3782      1354.0369      20.984789    
  24015000   303.44059     -2638.6125      1235.7484      1310.6322     -5.9984361    
  24020000   303.11185     -2629.3021      1162.7737      1244.0281      5.0981689    
  24025000   297.53205     -2620.2612      1217.1637      1257.5621      1.1970373    
  24030000   295.0965      -2621.0891      1253.5594      1271.3502     -9.7061519    
  24035000   303.80248     -2619.1252      1263.2648      1360.872      -9.5390264    
  24040000   297.08197     -2623.1655      1249.4658      1282.9351      6.3796811    
  24045000   294.86151     -2594.5671      1227.2577      1269.4691      4.1731353    
  24050000   296.62178     -2650.9381      1268.0981      1269.6795     -20.011997    
  24055000   295.82674     -2652.6983      1242.9685      1235.6802     -6.5901791    
  24060000   311.62769     -2611.2931      1260.9462      1436.3619      17.76356     
  24065000   298.14732     -2629.211       1218.6686      1255.6191     -7.1375133    
  24070000   297.50176     -2640.5438      1230.2856      1250.1305     -14.267911    
  24075000   297.73758     -2615.1189      1199.0263      1246.4049      2.4988978    
  24080000   302.28685     -2637.6086      1221.9069      1287.4773      17.410351    
  24085000   298.89384     -2656.018       1259.4734      1276.2927     -22.130576    
  24090000   296.00845     -2625.7557      1251.9533      1273.2325      16.784976    
  24095000   294.8073      -2628.0252      1217.3218      1225.5903     -4.4779892    
  24100000   299.56159     -2609.243       1189.5718      1259.1374      4.9419719    
  24105000   298.16121     -2663.3635      1243.9401      1246.8624      13.623299    
  24110000   296.76801     -2660.4244      1297.7208      1291.1236     -16.503887    
  24115000   293.38553     -2635.6355      1219.9042      1207.8482      3.131635     
  24120000   297.54777     -2632.3617      1233.7075      1262.1458      10.335863    
  24125000   306.67162     -2624.4916      1281.9906      1399.8886     -1.6890997    
  24130000   302.9682      -2591.3931      1297.0096      1414.8885      7.9100834    
  24135000   296.72775     -2630.5797      1222.6339      1245.5214      11.981033    
  24140000   297.80465     -2607.7833      1209.7854      1265.0994     -22.649202    
  24145000   299.54708     -2600.9122      1249.4261      1327.1928      9.1799905    
  24150000   302.62243     -2630.018       1262.5381      1338.7        -3.5758838    
  24155000   304.39044     -2612.6317      1235.9291      1345.2877      16.206668    
  24160000   299.24609     -2610.2061      1173.6463      1239.4275     -1.3069733    
  24165000   300.03387     -2611.0948      1241.3567      1313.2939      3.3079876    
  24170000   292.36952     -2619.2677      1220.1197      1215.346       4.4779451    
  24175000   299.34889     -2591.9075      1214.1212      1299.1203      7.6930094    
  24180000   304.11366     -2604.9753      1236.6144      1351.1543     -12.361016    
  24185000   294.74352     -2611.0801      1194.4426      1219.0858      2.4793666    
  24190000   306.71382     -2588.2132      1211.7705      1366.3242      0.047671062  
  24195000   296.73113     -2615.0772      1218.5853      1257.0055      15.275043    
  24200000   303.49449     -2604.3928      1226.6904      1336.2759      11.254529    
  24205000   296.96159     -2620.2869      1232.2444      1267.5158     -15.248164    
  24210000   300.18542     -2598.7835      1250.1079      1335.7115     -2.3406399    
  24215000   302.8233      -2603.9938      1266.0545      1370.037       2.6212211    
  24220000   295.73245     -2584.4991      1217.1944      1277.262       7.2295928    
  24225000   302.60823     -2582.6998      1218.0487      1341.4019      35.406135    
  24230000   297.79027     -2593.6944      1257.4106      1326.6848      14.305463    
  24235000   302.30001     -2592.9542      1245.7397      1356.0823     -6.7590442    
  24240000   296.51411     -2603.3474      1247.8488      1296.0582      16.059172    
  24245000   304.24825     -2567.9357      1259.6032      1412.3862      7.0193644    
  24250000   304.42975     -2567.8217      1191.4708      1345.9908      10.325673    
  24255000   307.94312     -2566.6791      1219.1039      1406.1846     -0.48571102   
  24260000   300.39468     -2569.3724      1270.6202      1387.5062     -8.3316986    
  24265000   294.58192     -2569.4749      1233.2639      1298.0672      10.011281    
  24270000   296.81098     -2578.2421      1273.8263      1349.7956      1.9741396    
  24275000   302.91591     -2544.2337      1225.3193      1389.8899      15.303495    
  24280000   301.39532     -2519.6147      1278.2928      1453.8847      10.829744    
  24285000   307.9298      -2555.7751      1247.7096      1445.5753      40.301551    
  24290000   293.33467     -2570.7308      1243.3601      1295.7542      7.1595281    
  24295000   299.86872     -2555.4105      1202.4759      1328.6205     -12.212786    
  24300000   303.72853     -2576.8346      1256.0908      1395.3274     -17.383056    
  24305000   297.02174     -2585.7176      1263.8392      1334.2177     -15.444523    
  24310000   302.12224     -2560.4374      1236.2582      1377.5278      12.149576    
  24315000   296.44432     -2574.3977      1249.9152      1326.4501     -11.859208    
  24320000   304.2795      -2575.1296      1232.7373      1378.6059      1.8279342    
  24325000   301.01726     -2572.2613      1190.4481      1310.0126      3.9817442    
  24330000   294.01633     -2550.4583      1286.755       1365.5171      6.288204     
  24335000   298.86557     -2560.2248      1186.6925      1299.0522      8.6529022    
  24340000   302.189       -2567.9112      1257.4518      1391.8447      0.75000857   
  24345000   307.95545     -2564.9225      1226.9017      1415.8493      32.216267    
  24350000   298.59504     -2565.555       1220.3789      1324.9892      3.7270863    
  24355000   299.77788     -2592.1355      1205.5213      1294.1286      8.2659126    
  24360000   299.59003     -2579.896       1190.6232      1289.7901      4.3263062    
  24365000   300.07064     -2585.6947      1261.6229      1359.2889      14.89413     
  24370000   308.12041     -2595.2454      1261.1388      1421.2387     -1.4412195    
  24375000   305.93294     -2580.9393      1237.271       1392.1156     -9.5995291    
  24380000   296.2566      -2556.6772      1235.7861      1328.3629     -19.411875    
  24385000   295.02737     -2559.091       1247.0062      1326.1769      11.134236    
  24390000   296.8435      -2573.519       1240.4778      1321.4612      15.333504    
  24395000   296.34395     -2584.1766      1254.7916      1320.6501      20.156816    
  24400000   311.78528     -2596.5965      1222.0873      1413.6089      17.51681     
  24405000   302.0396      -2569.4902      1238.9027      1370.3805      25.950743    
  24410000   288.23195     -2625.0398      1244.9378      1197.3921     -1.9038176    
  24415000   296.67666     -2602.3132      1245.1025      1295.7996      2.1671182    
  24420000   306.65841     -2608.2405      1248.3776      1382.4085     -2.8401616    
  24425000   303.53656     -2613.4224      1266.4522      1367.3843     -9.0945046    
  24430000   302.4384      -2629.8983      1294.1723      1368.8083      31.569227    
  24435000   302.4414      -2579.0916      1199.5876      1325.0571      5.5449777    
  24440000   302.97682     -2617.1297      1162.864       1255.0833     -3.3009647    
  24445000   298.2262      -2628.616       1255.1536      1293.4045     -3.5122865    
  24450000   299.33287     -2673.576       1196.323       1199.5103     -0.97538885   
  24455000   302.42504     -2653.3239      1255.555       1306.6459      13.865427    
  24460000   301.93625     -2657.9034      1275.9989      1318.1393     -12.129334    
  24465000   300.18981     -2649.4101      1230.6915      1265.7078      13.102174    
  24470000   300.4544      -2640.9077      1277.3249      1323.2097     -4.7950846    
  24475000   295.60361     -2657.9533      1228.376       1213.8373     -1.5490315    
  24480000   298.96231     -2633.4228      1239.9031      1279.9299      30.485785    
  24485000   302.30789     -2599.7562      1269.3046      1372.9156     -5.0572131    
  24490000   298.46529     -2594.9519      1250.9092      1324.9623      3.1214534    
  24495000   299.25885     -2588.0433      1221.1442      1309.2022      7.2049408    
  24500000   304.36809     -2594.5375      1245.1237      1372.3765      1.5718191    
  24505000   301.38967     -2596.0682      1206.5807      1305.6685     -17.931219    
  24510000   294.61873     -2593.9457      1265.1563      1305.8179      19.802882    
  24515000   304.4344      -2624.6413      1251.3133      1349.0553     -15.947818    
  24520000   295.12593     -2618.8537      1252.5313      1272.8207     -12.500431    
  24525000   299.63288     -2636.116       1206.833       1250.1631      6.4993635    
  24530000   296.41746     -2643.8541      1234.0621      1240.9004      30.864715    
  24535000   304.26195     -2659.3532      1243.5523      1305.0403      1.4259437    
  24540000   295.32054     -2618.1985      1234.573       1257.2578      2.0528769    
  24545000   294.8179      -2647.3606      1253.9588      1242.9867      12.421098    
  24550000   297.12441     -2640.8977      1216.3788      1232.4954     -14.376138    
  24555000   298.66031     -2621.6223      1221.9589      1271.0855     -27.122846    
  24560000   297.625       -2625.0844      1255.6806      1292.087       24.22409     
  24565000   302.53365     -2590.7725      1236.8887      1351.5023      5.6909096    
  24570000   295.70188     -2600.7409      1209.4833      1253.0359      10.943845    
  24575000   302.54832     -2583.5743      1254.616       1376.559       7.5384086    
  24580000   301.71439     -2585.535       1305.7003      1418.2251     -1.788205     
  24585000   293.61281     -2580.0234      1217.2002      1262.7887      20.980516    
  24590000   302.5378      -2640.0886      1247.9113      1313.2458     -16.576978    
  24595000   296.22467     -2601.7016      1219.4157      1266.6825      11.667041    
  24600000   292.61942     -2629.1774      1268.7162      1256.2675     -5.0611185    
  24605000   295.67553     -2619.6982      1276.7447      1301.1043      1.9289658    
  24610000   300.77403     -2605.9928      1228.3845      1312.0425      46.112973    
  24615000   298.93553     -2602.8804      1178.0824      1248.4121      13.85361     
  24620000   297.68285     -2602.938       1232.0304      1291.1005      12.007141    
  24625000   303.02349     -2610.2732      1232.4421      1331.9352      11.738597    
  24630000   300.76964     -2583.8086      1224.4295      1330.2325      26.890804    
  24635000   298.28165     -2600.1925      1264.763       1331.9333      7.5894762    
  24640000   300.47365     -2626.0789      1261.6926      1322.5783     -20.035253    
  24645000   296.56645     -2589.4422      1257.4199      1320.0025      14.762358    
  24650000   305.29648     -2617.2164      1215.5668      1328.4429      14.374876    
  24655000   296.40992     -2617.759       1235.1634      1268.0293      8.9707643    
  24660000   298.08332     -2606.0974      1243.3638      1302.8557      26.440251    
  24665000   306.62068     -2570.3978      1248.8943      1420.4305      6.9549732    
  24670000   300.93336     -2614.1636      1314.1785      1391.0904      16.430278    
  24675000   299.45662     -2564.9592      1237.8463      1350.757      -16.823545    
  24680000   298.4813      -2578.7226      1260.6702      1351.0958     -6.0577997    
  24685000   300.00106     -2566.9904      1265.1804      1380.9285     -1.9778133    
  24690000   298.77963     -2565.3783      1231.6298      1338.0675     -2.3471137    
  24695000   301.42888     -2566.0776      1242.5207      1371.9497      26.791093    
  24700000   296.33639     -2571.3654      1234.9444      1313.5464      6.1260425    
  24705000   298.15967     -2546.9717      1232.3963      1351.6967      11.314116    
  24710000   300.96396     -2544.0317      1248.1527      1395.4702      5.0819608    
  24715000   303.74988     -2567.907       1219.3801      1367.7352      0.64006025   
  24720000   300.72481     -2531.3612      1263.6143      1421.4637      12.202583    
  24725000   297.9792      -2553.8324      1218.1391      1328.9649     -27.146559    
  24730000   298.70576     -2549.5855      1227.4513      1349.0212     -11.28905     
  24735000   303.23592     -2575.9811      1211.6897      1347.3746      0.81135915   
  24740000   294.80379     -2558.541       1211.3275      1289.0487     -15.398033    
  24745000   297.59285     -2582.0405      1226.8786      1306.0415      4.7190848    
  24750000   300.53964     -2596.0291      1254.2258      1345.7514      2.2387706    
  24755000   302.1287      -2594.1141      1283.2985      1390.9492     -2.2437186    
  24760000   304.62231     -2598.6746      1251.6305      1377.0196     -2.3875122    
  24765000   289.27571     -2548.081       1226.7978      1265.5447      9.2231305    
  24770000   299.35152     -2595.1338      1223.9263      1305.7226     -5.4651945    
  24775000   306.49973     -2548.2419      1223.4789      1416.0894      8.3409191    
  24780000   301.34144     -2551.8145      1264.6376      1407.5479     -8.7548107    
  24785000   298.22294     -2515.9463      1208.0887      1358.9803      3.1049987    
  24790000   294.44755     -2576.7697      1232.2461      1288.553       12.55657     
  24795000   302.43428     -2570.6036      1239.7373      1373.6312      3.322927     
  24800000   300.33899     -2557.5276      1260.7968      1389.0297     -4.7225631    
  24805000   295.49135     -2584.3636      1267.8794      1325.9266     -7.6613881    
  24810000   304.1638      -2574.7615      1281.1738      1426.3759      3.5769925    
  24815000   299.85421     -2581.3016      1274.3272      1374.4509      22.577563    
  24820000   307.52368     -2584.6286      1304.0402      1469.4205      0.68476737   
  24825000   304.25798     -2560.32        1232.7484      1393.2341      4.2244782    
  24830000   303.35702     -2557.9081      1247.5896      1402.4304      10.210641    
  24835000   302.44767     -2552.4015      1174.2705      1326.4862      10.483602    
  24840000   302.2647      -2550.393       1201.8802      1354.4682     -14.235759    
  24845000   299.28073     -2591.971       1212.2933      1296.6194     -3.8183214    
  24850000   297.93411     -2601.4394      1209.1735      1271.9891     -11.538906    
  24855000   305.1347      -2615.1376      1206.7016      1320.2098     -2.5709413    
  24860000   300.10222     -2609.3512      1233.555       1307.8469      5.4268334    
  24865000   299.67583     -2622.8427      1229.5798      1286.5673      8.8261556    
  24870000   295.45996     -2588.1695      1207.5163      1261.4769     -0.96119353   
  24875000   301.50403     -2613.5239      1253.9143      1336.5692      13.180299    
  24880000   301.58373     -2586.9779      1240.5652      1350.4788      8.6875814    
  24885000   302.68369     -2584.8851      1263.8642      1385.7069     -10.974046    
  24890000   309.24127     -2583.4719      1285.087       1466.9836      4.4398771    
  24895000   301.31749     -2587.1361      1210.3595      1317.7339     -4.6072332    
  24900000   304.49678     -2606.8735      1198.5231      1314.5907      22.015619    
  24905000   300.29627     -2589.267       1224.5187      1320.6301      0.38850217   
  24910000   299.47777     -2579.2967      1225.9564      1324.7188     -21.021054    
  24915000   301.44669     -2569.9831      1280.3807      1406.0636     -9.1058295    
  24920000   301.3046      -2561.4017      1230.457       1363.4506     -4.7445714    
  24925000   301.72404     -2544.9443      1227.1057      1380.3076      9.0545047    
  24930000   298.97375     -2560.0449      1264.9724      1378.4794      28.542625    
  24935000   307.12766     -2556.3969      1213.8384      1403.9092      2.0567916    
  24940000   303.64325     -2551.9028      1247.1788      1410.5845      13.771765    
  24945000   305.16193     -2561.6016      1245.8191      1413.1067     -4.7609897    
  24950000   302.61645     -2545.945       1207.2921      1367.4737      22.460248    
  24955000   295.49155     -2535.3993      1244.6674      1351.6806     -7.392089     
  24960000   297.48786     -2527.5349      1281.5861      1414.3157      11.615783    
  24965000   302.7515      -2537.2408      1214.8468      1384.9401      14.022104    
  24970000   307.98142     -2542.7231      1262.304       1473.6833     -2.2644168    
  24975000   302.72306     -2506.9999      1251.9977      1452.0777      2.3014311    
  24980000   310.73612     -2520.3646      1243.8431      1502.2145      10.628835    
  24985000   299.39996     -2523.0524      1245.3299      1399.6407     -15.138999    
  24990000   301.86526     -2544.8087      1259.1621      1413.7624     -7.5472452    
  24995000   300.75585     -2582.7606      1266.8541      1373.5816     -10.924671    
  25000000   298.86843     -2573.3004      1236.3811      1335.6907      6.0343802    
  25005000   303.69236     -2554.7079      1227.6988      1388.7386     -4.1594776    
  25010000   296.09017     -2568.8795      1273.4374      1352.3235      4.0044481    
Loop time of 13061.7 on 64 procs for 25000000 steps with 3001 atoms

Performance: 4961.084 ns/day, 0.005 hours/ns, 1913.998 timesteps/s
99.6% CPU use with 64 MPI tasks x 1 OpenMP threads

MPI task timing breakdown:
Section |  min time  |  avg time  |  max time  |%varavg| %total
---------------------------------------------------------------
Pair    | 42.677     | 265.71     | 1771.8     |3305.4 |  2.03
Bond    | 32.548     | 53.908     | 198.39     | 713.2 |  0.41
Neigh   | 3148.2     | 3236.7     | 3387.4     | 101.2 | 24.78
Comm    | 7315.8     | 9254.3     | 9607.9     | 711.2 | 70.85
Output  | 31.52      | 31.624     | 31.708     |   1.0 |  0.24
Modify  | 52.777     | 85.935     | 288.46     | 822.6 |  0.66
Other   |            | 133.5      |            |       |  1.02

Nlocal:        46.8906 ave         193 max          11 min
Histogram: 32 20 4 0 0 0 0 0 5 3
Nghost:        3469.03 ave        3738 max        3100 min
Histogram: 5 3 0 0 17 6 11 14 1 7
Neighs:        589.531 ave        4899 max          14 min
Histogram: 56 0 0 0 0 0 2 4 1 1
FullNghs:      1179.06 ave        9299 max          38 min
Histogram: 56 0 0 0 0 0 0 4 3 1

Total # of neighbors = 75460
Ave neighs/atom = 25.144952
Ave special neighs/atom = 3.5988004
Neighbor list builds = 2500000
Dangerous builds = 2499990
Total wall time: 3:37:45
