LAMMPS (23 Jun 2022)
OMP_NUM_THREADS environment is not set. Defaulting to 1 thread. (src/src/comm.cpp:98)
  using 1 OpenMP thread(s) per MPI task
Created orthogonal box = (0 0 0) to (150 150 150)
  2 by 3 by 3 MPI processor grid
Read molecule template lig:
  1 molecules
  0 fragments
  5 atoms with max type 2
  4 bonds with max type 1
  3 angles with max type 1
  0 dihedrals with max type 0
  0 impropers with max type 0
Created 1 atoms
  using box units in orthogonal box = (0 0 0) to (150 150 150)
  create_atoms CPU = 0.000 seconds
Created 3000 atoms
  using lattice units in orthogonal box = (0 0 0) to (150 150 150)
  create_atoms CPU = 0.003 seconds
Finding 1-2 1-3 1-4 neighbors ...
  special bond factors lj:    0        1        1       
  special bond factors coul:  0        0        0       
     2 = max # of 1-2 neighbors
     2 = max # of 1-3 neighbors
     2 = max # of 1-4 neighbors
     7 = max # of special neighbors
  special bonds CPU = 0.001 seconds
3000 atoms in group ligands
Generated 0 of 6 mixed pair_coeff terms from geometric mixing rule
Neighbor list info ...
  update every 1 steps, delay 10 steps, check yes
  max neighbors/atom: 2000, page size: 100000
  master list distance cutoff = 60
  ghost atom cutoff = 60
  binsize = 30, bins = 5 5 5
  1 neighbor lists, perpetual/occasional/extra = 1 0 0
  (1) pair lj/expand, perpetual
      attributes: half, newton on
      pair build: half/bin/newton
      stencil: half/bin/3d
      bin: standard
Setting up Verlet run ...
  Unit style    : real
  Current step  : 0
  Time step     : 30
Per MPI rank memory allocation (min/avg/max) = 8.329 | 8.352 | 8.375 Mbytes
   Step          Temp          E_pair         E_mol          TotEng         Press     
         0   0              9.7186893e+12  3.7351619e-25  9.7186893e+12  7.8980177e+11
     10000   142.03343     -956.00541      617.92371      932.04228     -4.4563716    
Loop time of 4.08188 on 18 procs for 10000 steps with 3001 atoms

Performance: 6350.020 ns/day, 0.004 hours/ns, 2449.854 timesteps/s
99.7% CPU use with 18 MPI tasks x 1 OpenMP threads

MPI task timing breakdown:
Section |  min time  |  avg time  |  max time  |%varavg| %total
---------------------------------------------------------------
Pair    | 0.13842    | 0.2558     | 0.42162    |  12.9 |  6.27
Bond    | 0.062923   | 0.087411   | 0.11068    |   3.7 |  2.14
Neigh   | 1.6348     | 1.6407     | 1.6501     |   0.4 | 40.20
Comm    | 1.6803     | 1.9103     | 2.086      |   6.6 | 46.80
Output  | 4.3734e-05 | 5.0051e-05 | 6.3849e-05 |   0.0 |  0.00
Modify  | 0.08834    | 0.11811    | 0.16101    |   4.4 |  2.89
Other   |            | 0.06948    |            |       |  1.70

Nlocal:        166.722 ave         229 max         120 min
Histogram: 1 2 1 5 1 5 1 1 0 1
Nghost:        4874.33 ave        5038 max        4718 min
Histogram: 3 1 1 1 3 2 2 3 1 1
Neighs:        1127.17 ave        1945 max         528 min
Histogram: 2 1 2 3 3 4 2 0 0 1

Total # of neighbors = 20289
Ave neighs/atom = 6.7607464
Ave special neighs/atom = 3.5988004
Neighbor list builds = 909
Dangerous builds = 0
1 atoms in group nps
600 atoms in group amines
Generated 0 of 6 mixed pair_coeff terms from geometric mixing rule
Neighbor list info ...
  update every 1 steps, delay 10 steps, check yes
  max neighbors/atom: 2000, page size: 100000
  master list distance cutoff = 60
  ghost atom cutoff = 60
  binsize = 30, bins = 5 5 5
  2 neighbor lists, perpetual/occasional/extra = 1 1 0
  (1) pair lj/expand, perpetual
      attributes: half, newton on
      pair build: half/bin/newton
      stencil: half/bin/3d
      bin: standard
  (2) compute coord/atom, occasional
      attributes: full, newton on
      pair build: full/bin
      stencil: full/bin/3d
      bin: standard
Setting up Verlet run ...
  Unit style    : real
  Current step  : 10000
  Time step     : 30
Per MPI rank memory allocation (min/avg/max) = 7.695 | 7.719 | 7.741 Mbytes
   Step          Temp          E_pair         E_mol          TotEng         Press     
     10000   142.03343     -956.00541      617.92371      932.04228     -4.4563716    
     50000   303.98598     -2823.2353      1263.9047      1159.0428      9.2936973    
    100000   305.51126     -3769.5205      1344.9618      307.45441     -5.628407     
    150000   297.76583     -4234.5997      1205.7385     -366.11104      1.3857994    
    200000   302.38615     -4606.1186      1295.7789     -606.27259     -3.1346224    
    250000   306.29245     -4949.7641      1259.2497     -951.51554      34.970718    
    300000   304.39216     -5130.1224      1288.4501     -1119.6667      13.213839    
    350000   302.55364     -5211.049       1209.2194     -1296.2648      2.9414536    
    400000   297.64895     -5308.4285      1228.4214     -1418.3021     -20.968775    
    450000   288.83982     -5463.8027      1162.9575     -1717.9152      8.5880469    
    500000   300.4363      -5608.0273      1232.232      -1689.1646      31.469565    
    550000   303.34196     -5651.9826      1212.375      -1726.9934     -17.911519    
    600000   304.7085      -5745.5571      1223.2697     -1797.4529      8.3061064    
    650000   302.26707     -5811.9853      1177.8886     -1931.0946      3.7442028    
    700000   304.08407     -5868.2626      1202.7683     -1946.2438      5.1513858    
    750000   306.55995     -5911.9275      1198.0609     -1972.4756     -7.0972374    
    800000   299.41132     -5919.3358      1235.0089     -2006.8621      28.17241     
    850000   293.10403     -5970.8145      1187.1451     -2162.6072      36.543671    
    900000   303.16563     -6030.5284      1203.7146     -2115.7763      14.834795    
    950000   296.03688     -6043.0174      1137.0482     -2258.6801     -22.529978    
   1000000   295.33015     -6054.8281      1186.1701     -2227.6888      21.481318    
   1050000   301.98219     -6075.1507      1193.8236     -2180.8724     -16.809292    
   1100000   303.21539     -6142.6312      1226.12       -2205.0287      39.80394     
   1150000   297.1447      -6156.8892      1158.4325     -2341.2609      12.463145    
   1200000   297.58361     -6173.2697      1202.2971     -2309.8519     -23.897443    
   1250000   302.89228     -6161.68        1243.8214     -2209.2656     -17.427779    
   1300000   307.38394     -6195.8656      1192.8001     -2254.306       30.915921    
   1350000   297.34028     -6226.1126      1217.6248     -2349.5432     -10.837129    
   1400000   299.27274     -6257.0363      1213.7453     -2367.0655      13.339435    
   1450000   300.55381     -6301.4826      1204.2136     -2409.5875      7.4982851    
   1500000   306.24665     -6260.9677      1167.0154     -2355.363       26.024665    
   1550000   307.29463     -6327.4857      1200.2879     -2379.2371      18.140758    
   1600000   297.66357     -6361.9895      1197.7072     -2502.4466      12.82654     
   1650000   298.4688      -6344.4175      1179.4811     -2495.9         7.5030828    
   1700000   302.74098     -6386.7412      1200.9645     -2478.5367      15.065162    
   1750000   294.97621     -6443.5281      1261.1324     -2544.5915     -3.6025884    
   1800000   296.79929     -6455.2131      1192.2092     -2608.897       34.156135    
   1850000   300.29256     -6445.0063      1220.6758     -2538.9853     -19.237784    
   1900000   296.17586     -6425.1649      1158.0337     -2618.5993      35.994883    
   1950000   291.51851     -6426.7257      1203.4034     -2616.4385      40.9635      
   2000000   300.38556     -6451.9214      1173.9022     -2591.8423      25.547345    
   2050000   303.60216     -6464.1174      1175.2908     -2573.8855     -37.80242     
   2100000   292.4659      -6451.7763      1227.8226     -2608.5977     -18.961686    
   2150000   297.89881     -6507.9896      1154.9313     -2689.119      -34.832478    
   2200000   306.46251     -6488.3607      1173.933      -2573.9081     -29.242146    
   2250000   302.32634     -6487.214       1173.5575     -2610.1243     -6.5235148    
   2300000   302.89966     -6534.0308      1136.8886     -2688.4831     -2.8672354    
   2350000   304.63505     -6561.0121      1177.4769     -2659.3575      30.380707    
   2400000   287.73525     -6571.6074      1173.3818     -2825.1732      32.344756    
   2450000   302.53141     -6547.3328      1133.1119     -2708.855       14.696516    
   2500000   294.0438      -6571.4813      1181.6896     -2760.3256      36.503443    
   2550000   295.35534     -6573.8376      1177.4399     -2755.2032     -9.4052092    
   2600000   301.76733     -6576.8113      1207.467      -2670.8111      32.164682    
   2650000   296.0041      -6587.0723      1174.6128     -2765.4636      25.835992    
   2700000   298.72425     -6559.7548      1188.1686     -2700.2655      3.9021946    
   2750000   292.60277     -6537.7224      1203.5273     -2717.6153      11.662068    
   2800000   308.66672     -6581.303       1163.8162     -2657.2563      5.7519549    
   2850000   293.4651      -6589.6196      1169.51       -2795.8185      34.38969     
   2900000   300.41088     -6605.8141      1212.4998     -2706.911      -14.747549    
   2950000   295.88963     -6583.9648      1166.9486     -2771.0438     -5.5723435    
   3000000   300.7503      -6612.0801      1227.752      -2694.8895     -6.6752391    
   3050000   306.8283      -6579.1351      1189.9999     -2645.3445      26.039947    
   3100000   301.85624     -6612.1838      1198.7351     -2714.1203     -35.158152    
   3150000   298.40952     -6593.9345      1195.6258     -2729.8024     -24.80982     
   3200000   303.78871     -6652.6449      1198.8236     -2737.212       24.196688    
   3250000   299.20094     -6631.6814      1219.2457     -2736.8522     -15.688662    
   3300000   302.21672     -6673.6926      1206.4886     -2764.652       79.774365    
   3350000   295.76365     -6690.7546      1198.0548     -2847.854       26.146115    
   3400000   297.89275     -6706.2952      1199.9989     -2842.4113      15.644871    
   3450000   298.0373      -6694.6006      1199.999      -2829.4238      24.521298    
   3500000   296.56968     -6688.4697      1171.4481     -2864.968       51.977433    
   3550000   302.87923     -6691.167       1201.3057     -2781.385       36.43767     
   3600000   305.93107     -6693.8882      1162.4452     -2795.6757      8.9397709    
   3650000   298.87272     -6735.3465      1163.9531     -2898.745      -6.4028857    
   3700000   302.49118     -6727.0934      1164.0443     -2858.0429      2.6073522    
   3750000   295.65647     -6720.4244      1229.728      -2846.8091     -31.239519    
   3800000   294.58528     -6719.5288      1196.0983     -2889.1222      27.461675    
   3850000   304.91597     -6695.6254      1160.8042     -2808.1314     -41.668373    
   3900000   298.77668     -6693.313       1175.7931     -2845.7303      16.812026    
   3950000   296.02828     -6721.7644      1181.3856     -2893.1665     -23.329235    
   4000000   297.28043     -6710.7571      1179.9428     -2872.4048      16.893343    
   4050000   293.92473     -6743.7836      1216.8755     -2898.5067      21.963745    
   4100000   301.78972     -6764.9016      1183.3093     -2882.8588      17.091898    
   4150000   296.96369     -6756.9829      1169.7935     -2931.6125     -52.582704    
   4200000   293.0831      -6779.0812      1172.4588     -2985.7472      59.932731    
   4250000   299.07631     -6754.8579      1148.5042     -2931.8848      5.8075924    
   4300000   298.04461     -6804.6443      1190.9474     -2948.4538     -49.012131    
   4350000   301.46577     -6829.446       1161.9101     -2971.6993      27.697033    
   4400000   301.01446     -6757.897       1163.0013     -2903.0949      42.373708    
   4450000   298.30702     -6815.8397      1183.2174     -2965.0326      1.2555712    
   4500000   299.17369     -6805.0909      1207.899      -2921.8521     -16.833211    
   4550000   300.93717     -6839.8517      1142.0119     -3006.7303      8.6301934    
   4600000   298.06776     -6808.8039      1159.4524     -2983.9015      23.841863    
   4650000   296.82746     -6775.5871      1162.1616     -2959.0666     -12.605325    
   4700000   294.64726     -6859.4483      1174.6747     -3049.9111      16.654441    
   4750000   300.31618     -6847.1043      1150.4234     -3011.1244     -15.104787    
   4800000   292.21227     -6808.5981      1227.2561     -2968.2541     -36.084402    
   4850000   295.83829     -6845.8294      1174.0819     -3026.2342     -11.982834    
   4900000   301.91135     -6834.1427      1169.4699     -2964.8516      16.125158    
   4950000   298.93924     -6832.9099      1175.7348     -2983.9318     -7.6684326    
   5000000   295.28287     -6866.9325      1151.2936     -3075.0925     -22.856326    
   5050000   300.79901     -6839.4         1134.5433     -3014.9826      28.791066    
   5100000   307.35147     -6876.058       1178.6229     -2948.9661      28.431552    
   5150000   295.77747     -6855.1659      1157.6346     -3052.5619     -16.940813    
   5200000   301.76463     -6842.9683      1139.9788     -3004.4804      3.3067727    
   5250000   301.57243     -6862.0159      1165.7801     -2999.4455      37.523056    
   5300000   299.02455     -6868.6736      1159.4334     -3035.234       0.55525144   
   5350000   308.79185     -6878.5353      1151.7878     -2965.3979      33.137653    
   5400000   302.46764     -6924.8677      1190.2838     -3029.7881      5.6716297    
   5450000   302.8818      -6898.8526      1128.3805     -3061.9728     -25.96779     
   5500000   306.12347     -6877.0276      1196.3427     -2943.1971      38.389005    
   5550000   301.95077     -6875.7982      1199.2741     -2976.3504      46.405642    
   5600000   303.88787     -6903.2036      1139.7859     -3045.9216     -29.086855    
   5650000   302.99075     -6894.3761      1209.1814     -2975.7211      21.397973    
   5700000   303.80897     -6919.6332      1174.6008     -3028.2419     -25.473       
   5750000   308.24701     -6915.1591      1156.3049     -3002.3769     -31.237144    
   5800000   301.15308     -6893.5096      1196.2113     -3004.258      -1.6321095    
   5850000   301.74061     -6920.9518      1206.7206     -3015.9369      1.750582     
   5900000   302.27195     -6911.4157      1137.5293     -3070.8406      9.6942116    
   5950000   301.65698     -6935.1212      1170.2811     -3067.2936     -18.028209    
   6000000   307.67781     -6890.2123      1148.2553     -2990.5697     -0.71829553   
   6050000   295.67323     -6893.8608      1149.6918     -3100.1317      31.907511    
   6100000   306.30446     -6892.2265      1167.254      -2985.8662      8.8390219    
   6150000   305.18172     -6942.0781      1183.2625     -3029.7494      21.256478    
   6200000   297.54583     -6915.5926      1210.6362     -3044.1735      6.3005869    
   6250000   298.58143     -6921.1778      1163.2135     -3087.9207     -13.652972    
   6300000   300.92596     -6873.1635      1115.3462     -3066.808       1.9078413    
   6350000   296.79688     -6867.248       1113.7104     -3099.4521      6.2659887    
   6400000   304.8423      -6911.8385      1144.0116     -3041.7959     -8.9577934    
   6450000   299.88168     -6924.192       1209.5251     -3032.9958      3.275295     
   6500000   305.48198     -6893.0127      1174.6296     -2986.6318      11.877963    
   6550000   298.02409     -6914.6951      1224.1972     -3025.4383      3.6307036    
   6600000   295.22763     -6876.2505      1179.8127     -3056.3853      3.7990427    
   6650000   295.6651      -6914.5639      1153.9362     -3116.6631     -7.6396845    
   6700000   298.94818     -6904.0323      1151.4371     -3079.272      -41.710727    
   6750000   294.03358     -6938.4512      1156.709      -3152.3675     -23.683417    
   6800000   300.48389     -6914.0307      1152.1614     -3074.813      -24.762646    
   6850000   304.53346     -6911.3936      1215.7932     -2972.3313     -21.473676    
   6900000   305.9156      -6967.5008      1177.9813     -3053.8906      36.493841    
   6950000   288.63343     -6954.1079      1179.8815     -3193.1421     -22.519855    
   7000000   300.51997     -6935.2008      1146.1767     -3101.6452     -25.112786    
   7050000   297.07283     -6912.9362      1191.6039     -3064.7792      11.303771    
   7100000   300.75672     -6942.6414      1144.3649     -3108.7806     -5.977108     
   7150000   299.58664     -6964.6223      1154.0934     -3131.4963     -3.4004519    
   7200000   304.57996     -6949.5896      1164.2252     -3061.6794     -12.287723    
   7250000   300.48788     -6990.3546      1125.763      -3177.4997     -15.928471    
   7300000   302.8807      -6968.8185      1134.3176     -3126.0114      34.872637    
   7350000   302.68581     -6988.785       1196.7053     -3085.333       44.76249     
   7400000   302.31091     -6927.1835      1183.7865     -3040.0028     -21.8016      
   7450000   299.05055     -6965.1956      1146.9229     -3144.034      -16.081765    
   7500000   301.50256     -6947.4763      1170.4758     -3080.8349     -5.9005029    
   7550000   304.1073      -6927.2403      1178.1267     -3029.6553      3.7993074    
   7600000   302.54652     -6967.596       1150.2261     -3111.8688      48.380709    
   7650000   307.79279     -6978.9455      1187.5501     -3038.9799     -3.0936629    
   7700000   301.23816     -6941.5436      1166.1096     -3081.6327      6.5677829    
   7750000   294.04009     -6980.0544      1139.6277     -3210.9937     -14.868837    
   7800000   293.04078     -6895.614       1164.8315     -3110.2859     -18.237949    
   7850000   300.6975      -6940.7248      1179.193      -3072.5655     -1.2943593    
   7900000   308.93557     -6963.236       1194.4949     -3006.1063      0.50035872   
   7950000   294.01413     -6968.656       1142.9067     -3196.5484     -12.371149    
   8000000   302.23093     -6962.2552      1169.2704     -3090.3059      19.412394    
   8050000   299.17733     -6951.4443      1195.1548     -3080.9172     -10.237927    
   8100000   306.43672     -6970.1358      1161.5872     -3068.2596     -12.866142    
   8150000   305.19655     -6955.6084      1180.3676     -3046.042       15.273916    
   8200000   308.58018     -6974.6755      1170.6478     -3044.571      -22.300627    
   8250000   297.84887     -6952.805       1203.4922     -3085.82       -1.503585     
   8300000   298.48004     -6963.9719      1182.4388     -3112.3961     -18.820517    
   8350000   309.68343     -6974.268       1146.0073     -3058.9382     -3.4869384    
   8400000   302.30566     -6970.085       1184.6143     -3082.1234      1.2556539    
   8450000   300.99955     -6920.7207      1180.3334     -3048.7198      6.6532351    
   8500000   299.3839      -6972.5487      1159.6856     -3135.6435     -14.317612    
   8550000   306.95847     -6997.7923      1194.7894     -3058.0483     -18.184863    
   8600000   298.21904     -6981.1759      1154.3621     -3160.0108     -13.805605    
   8650000   297.98219     -6956.5152      1130.5902     -3161.24        40.483329    
   8700000   293.48664     -6930.9394      1149.3209     -3157.1348     -3.9449686    
   8750000   302.77448     -6933.7312      1212.4599     -3013.7316      1.0604796    
   8800000   303.97698     -6969.0872      1164.4067     -3086.3877     -18.657901    
   8850000   300.37322     -6961.2517      1131.5998     -3143.5853      15.432839    
   8900000   302.70979     -6947.1195      1166.2432     -3073.9152     -7.8453627    
   8950000   302.00674     -6977.2342      1198.0239     -3078.5361      18.439383    
   9000000   297.71489     -6953.0111      1180.3268     -3110.3897      27.763884    
   9050000   301.68459     -6989.185       1216.2818     -3075.1098      1.0097281    
   9100000   297.1246      -6939.0482      1133.6126     -3148.4197      10.640306    
   9150000   293.86842     -6952.9844      1182.0016     -3143.085       28.773922    
   9200000   291.02851     -6960.5156      1145.83       -3212.1835      16.243093    
   9250000   310.43242     -6952.158       1123.4556     -3052.6822      16.970878    
   9300000   297.22119     -6965.6181      1157.7526     -3149.9858      1.7317449    
   9350000   299.35502     -6967.341       1119.4433     -3170.9363      34.471436    
   9400000   305.04008     -6950.8963      1167.9723     -3055.1244     -6.5693211    
   9450000   300.25692     -6957.4779      1171.242      -3101.2093      11.363897    
   9500000   298.08542     -6961.4909      1175.1714     -3120.7114     -16.325522    
   9550000   299.22926     -6950.1013      1162.7826     -3111.482       8.5694793    
   9600000   298.79345     -6971.4419      1183.2716     -3116.2308     -23.268393    
   9650000   301.77061     -6936.0583      1148.5005     -3088.9951      10.90169     
   9700000   308.53953     -6987.6029      1177.8275     -3050.6822     -4.5473913    
   9750000   303.7867      -6982.209       1166.2702     -3099.3475      3.5777307    
   9800000   299.23122     -6993.8588      1154.5098     -3163.4948      31.257821    
   9850000   295.62165     -6948.6232      1147.8962     -3157.151      -11.012048    
   9900000   294.78508     -6977.1657      1222.2751     -3118.7957     -10.734255    
   9950000   300.74039     -6975.8612      1140.5365     -3145.9748      25.770452    
  10000000   302.23589     -6962.9227      1167.6234     -3092.5759      0.86255588   
  10050000   298.10555     -7002.8094      1164.8252     -3172.1961      8.9370748    
  10100000   306.43633     -6978.4389      1177.8232     -3060.3302     -6.3264074    
  10150000   303.40151     -6940.9687      1170.155      -3057.6669     -10.912471    
  10200000   292.50652     -6945.2505      1171.7501     -3157.7812     -15.287581    
  10250000   295.71498     -6990.7219      1147.0688     -3199.2426      14.596621    
  10300000   301.58435     -6962.1654      1138.3118     -3126.9565     -1.7087579    
  10350000   297.47481     -6985.8838      1162.1566     -3163.5795     -25.140289    
  10400000   307.42997     -6988.8218      1206.565      -3033.0858      26.374258    
  10450000   301.93331     -6973.6808      1210.8397     -3062.8236     -29.712573    
  10500000   294.47152     -6977.4111      1146.659      -3197.4612     -19.628378    
  10550000   308.51009     -6968.4604      1179.7648     -3029.8657      1.0409834    
  10600000   301.82817     -6992.3834      1218.8355     -3074.4705     -40.503472    
  10650000   302.3203      -6982.4909      1190.18       -3088.8327     -40.565542    
  10700000   298.30562     -6959.4828      1145.6842     -3146.2215      20.007297    
  10750000   303.80366     -6963.5571      1160.2558     -3086.5583      13.037317    
  10800000   302.85833     -6980.0829      1131.5654     -3140.228       25.195276    
  10850000   301.91539     -6979.3514      1181.973      -3097.5211      16.409504    
  10900000   300.73201     -6996.9328      1188.9631     -3118.6948     -4.6963152    
  10950000   302.52061     -7015.7962      1123.8154     -3186.7114      1.1912397    
  11000000   304.75076     -6970.2575      1160.9299     -3084.1152      27.502607    
  11050000   299.49069     -6961.7631      1145.3473     -3138.2412      11.41878     
  11100000   298.65235     -6983.2788      1152.7197     -3159.8814     -12.244119    
  11150000   303.14362     -6970.5382      1176.5464     -3083.1511      14.909339    
  11200000   298.00888     -6999.1653      1209.7077     -3124.534       7.1130867    
  11250000   300.48364     -7028.2424      1159.1502     -3182.0383      22.931267    
  11300000   301.19896     -7003.0615      1189.8888     -3119.722       22.122018    
  11350000   302.67165     -7004.8369      1168.6683     -3129.5485      35.62179     
  11400000   302.56864     -6979.4002      1203.8455     -3069.8558     -18.336256    
  11450000   299.79929     -6983.1533      1130.395      -3171.8241      23.617203    
  11500000   295.49865     -6976.6118      1136.8234     -3197.3123      5.0799639    
  11550000   310.96284     -7004.6716      1180.4474     -3043.4607     -3.0648555    
  11600000   300.87216     -6982.2328      1104.8717     -3186.8328      24.644499    
  11650000   303.13072     -7002.8823      1149.0099     -3143.1471      15.544062    
  11700000   301.95331     -6965.0216      1119.634      -3145.1912     -19.48495     
  11750000   296.314       -7004.6487      1156.5609     -3198.3206      15.711159    
  11800000   303.08114     -6978.8391      1146.879      -3121.6782     -2.67808      
  11850000   289.50515     -6980.5742      1149.174      -3242.5206      6.1476715    
  11900000   296.70726     -7026.4319      1161.0273     -3212.1206      26.495364    
  11950000   305.67868     -7006.1547      1152.3167     -3120.3278     -42.096603    
  12000000   305.33085     -6985.7116      1187.2609     -3068.051       8.1771475    
  12050000   303.32612     -6967.1364      1167.3842     -3087.2796     -7.1994764    
  12100000   292.3954      -6980.4307      1213.9596     -3151.7457     -5.533376     
  12150000   296.49394     -7002.0399      1152.0839     -3198.5797      14.577273    
  12200000   301.44897     -6984.1217      1167.1601     -3121.2753     -12.38702     
  12250000   297.41752     -6997.0985      1156.0217     -3181.4414     -5.3596228    
  12300000   303.82338     -7001.2932      1140.1099     -3144.2639      11.380021    
  12350000   311.524       -6992.3438      1154.4923     -3052.0698      38.247469    
  12400000   299.94182     -7020.5202      1141.1783     -3197.1332     -15.272289    
  12450000   304.80273     -6998.2341      1159.7212     -3112.8357      0.36159676   
  12500000   300.85626     -6981.3191      1184.0594     -3106.8736     -21.526835    
  12550000   304.21947     -7018.6122      1145.6992     -3152.4516     -20.140753    
  12600000   294.24079     -7008.954       1165.3317     -3212.3946     -1.4757226    
  12650000   303.35821     -7023.3027      1143.3094     -3167.2337      9.9882029    
  12700000   299.96501     -7014.8798      1153.9355     -3178.5281     -9.1177166    
  12750000   300.57181     -7012.3991      1171.8581     -3152.6987     -17.660655    
  12800000   309.25859     -6989.2777      1169.1605     -3054.5938     -2.0935518    
  12850000   297.50406     -6994.073       1158.5886     -3175.0751     -33.578393    
  12900000   307.84843     -7009.0521      1179.07       -3077.069       42.875867    
  12950000   304.47689     -6986.5291      1159.4145     -3104.3513     -6.8966341    
  13000000   308.3675      -7038.455       1188.8666     -3092.0335     -2.0024127    
  13050000   303.87045     -7015.4339      1202.3117     -3095.7819      4.3852483    
  13100000   299.99444     -7000.3625      1114.8186     -3202.8645     -6.7122548    
  13150000   300.5191      -7004.7502      1174.0504     -3143.3287     -25.062707    
  13200000   302.42782     -6996.2155      1133.7717     -3158.0041      40.457665    
  13250000   300.78907     -6978.9198      1140.6717     -3148.4628      40.28916     
  13300000   296.84361     -7001.3453      1214.2485     -3132.5936     -2.5728254    
  13350000   308.76269     -7005.1619      1146.4308     -3097.6423     -36.254004    
  13400000   292.96931     -6997.8283      1166.9742     -3210.9966     -27.816683    
  13450000   296.0853      -7003.8312      1126.1002     -3230.0089     -4.5282281    
  13500000   298.08512     -6994.8134      1183.0933     -3146.1147     -29.642754    
  13550000   297.56775     -7037.3736      1151.6101     -3224.7847     -4.4172632    
  13600000   299.85014     -7009.6309      1205.6787     -3122.5633     -32.281689    
  13650000   300.47673     -7015.1027      1217.5079     -3110.6027     -0.11967615   
  13700000   307.857       -7025.272       1172.7311     -3099.5512     -14.762922    
  13750000   303.1091      -6983.8992      1141.1836     -3132.1837      47.53614     
  13800000   302.55478     -7002.6757      1133.698      -3163.4027     -2.567218     
  13850000   297.96782     -7002.6031      1148.049      -3189.9976     -1.0057927    
  13900000   299.8435      -6980.3518      1101.4094     -3197.6129      9.9181498    
  13950000   304.07229     -7002.1695      1189.9974     -3093.027      -6.9247442    
  14000000   301.04335     -7005.3945      1150.5544     -3162.781       55.808253    
  14050000   304.58822     -7009.197       1181.538      -3103.9         8.244978     
  14100000   299.24299     -7002.738       1148.5439     -3178.2345     -53.055116    
  14150000   298.96562     -7033.1955      1127.6665     -3232.0498      27.529629    
  14200000   300.75356     -6983.7397      1162.3802     -3131.8917     -12.69127     
  14250000   301.41416     -7015.8487      1155.5105     -3164.9631      16.187283    
  14300000   294.2471      -6994.5337      1172.9052     -3190.3444      12.029913    
  14350000   304.73694     -7002.6012      1169.1416     -3108.3708      14.488881    
  14400000   294.28705     -7019.6395      1173.6102     -3214.3879      18.998465    
  14450000   306.5103      -7048.5441      1178.6848     -3128.9124     -17.802339    
  14500000   299.89444     -7034.402       1188.5887     -3164.0282     -8.612304     
  14550000   295.62954     -7037.6025      1206.6246     -3187.3314      12.686209    
  14600000   303.88696     -7007.4028      1181.4257     -3108.4892      17.374458    
  14650000   304.06126     -6972.2526      1201.4507     -3051.7552      28.161491    
  14700000   294.82089     -7040.6248      1167.1607     -3237.0489      13.974656    
  14750000   298.99798     -7045.4522      1160.8262     -3210.8575     -2.0222909    
  14800000   307.61296     -7033.8444      1152.8953     -3130.1416     -3.2989136    
  14850000   297.14071     -7003.4799      1141.0359     -3205.284      -21.501868    
  14900000   295.20915     -7044.5795      1107.5252     -3297.1671      48.568569    
  14950000   305.75665     -7024.3105      1193.5629     -3096.5401     -19.000774    
  15000000   306.46487     -7031.2429      1183.418      -3107.2842      14.014142    
  15050000   293.78786     -7018.1054      1183.1156     -3207.8124     -13.22017     
  15100000   314.15571     -7013.408       1129.327      -3074.7655     -5.929658     
  15150000   306.04255     -7036.8249      1162.8337     -3137.2271      10.455071    
  15200000   293.72734     -7019.0034      1110.07       -3282.2972     -19.807128    
  15250000   308.93337     -7013.7988      1159.5215     -3091.6622      35.229918    
  15300000   303.88284     -7010.0034      1178.9888     -3113.5635      42.838158    
  15350000   298.71476     -7066.3698      1150.4142     -3244.7196      17.043441    
  15400000   304.12552     -7037.1062      1166.3051     -3151.1799     -1.6437642    
  15450000   297.18731     -7033.6671      1164.8132     -3211.2772      22.054908    
  15500000   302.61199     -7028.9151      1143.8637     -3178.9648     -6.4437664    
  15550000   307.19605     -7023.6985      1181.6737     -3094.9456      54.059141    
  15600000   299.82753     -7039.6524      1203.2174     -3155.2482     -6.3867148    
  15650000   299.16229     -7041.5108      1126.426      -3239.8469      11.493617    
  15700000   313.07202     -7059.0278      1195.8326     -3063.5705      5.112672     
  15750000   308.16815     -7030.7388      1210.1274     -3064.8392      3.2764284    
  15800000   302.87091     -7030.6662      1200.8237     -3121.4405      26.903369    
  15850000   299.29326     -7023.9948      1139.3985     -3208.1872     -9.1700416    
  15900000   308.82964     -6999.2562      1192.9999     -3044.5688     -41.606803    
  15950000   295.6029      -7012.5186      1173.8528     -3195.2575      30.405198    
  16000000   291.47878     -7041.2282      1188.8111     -3245.8885      11.793373    
  16050000   303.21699     -7035.8016      1138.4857     -3185.8192     -39.005398    
  16100000   301.04323     -7032.4068      1129.6373     -3210.7114     -21.053241    
  16150000   300.11243     -7054.5356      1175.3878     -3195.4134      27.098583    
  16200000   297.36539     -7073.1656      1187.3075     -3226.6889     -31.531237    
  16250000   295.8917      -7034.5906      1161.0043     -3227.5955     -9.8680124    
  16300000   300.54521     -7044.3824      1119.5733     -3237.2046     -38.138028    
  16350000   293.56721     -7031.1456      1165.2072     -3240.7341     -7.2090515    
  16400000   294.39599     -7069.6464      1165.0532     -3271.9777      9.3608758    
  16450000   293.60473     -7027.2304      1112.4893     -3289.2013      6.5683456    
  16500000   298.31802     -7030.0245      1150.7812     -3211.5552      27.598694    
  16550000   301.13771     -7084.3454      1202.5403     -3188.9022      14.677379    
  16600000   294.94236     -7035.3901      1134.9008     -3262.9878     -11.93366     
  16650000   303.39588     -7062.0483      1196.2077     -3152.7442      5.535803     
  16700000   301.62094     -7066.7437      1161.2883     -3208.2313      22.821376    
  16750000   304.44531     -7057.3817      1189.5151     -3145.3857     -34.68834     
  16800000   298.13932     -7043.756       1178.7123     -3198.9536      6.0929285    
  16850000   303.33258     -7042.3122      1157.875      -3171.9068     -25.247351    
  16900000   299.17964     -7038.7161      1115.3948     -3247.9282     -4.6908374    
  16950000   301.53429     -7067.1942      1123.5029     -3247.242       15.727927    
  17000000   300.93112     -7017.5141      1159.5576     -3166.901       2.5316335    
  17050000   296.83099     -7003.435       1156.3523     -3192.6923     -4.6801355    
  17100000   304.97464     -7021.2415      1151.408      -3142.619      -49.227178    
  17150000   298.06581     -7031.1069      1182.778      -3182.8961     -17.361608    
  17200000   305.68629     -7044.1197      1131.9337     -3178.6078      6.7254278    
  17250000   291.86802     -7063.5566      1177.0108     -3276.5364     -21.333308    
  17300000   297.16188     -6999.9096      1148.5592     -3194.001       12.262846    
  17350000   295.42149     -7039.7486      1179.4382     -3218.5243      8.9923171    
  17400000   291.82236     -7004.2955      1154.3487     -3240.3457     -49.896526    
  17450000   304.2826      -7013.9067      1154.1913     -3138.6895      1.2278984    
  17500000   293.80577     -7057.4693      1133.3761     -3296.7556     -6.9633772    
  17550000   295.62191     -7063.1771      1190.1601     -3229.4387      36.908402    
  17600000   305.65049     -7037.8432      1134.9379     -3169.6472     -24.624267    
  17650000   297.64389     -7063.3816      1162.9005     -3238.8213      27.335447    
  17700000   300.26668     -7048.4505      1218.7431     -3144.5936     -8.3404734    
  17750000   299.73773     -7056.6538      1152.007      -3224.2631      6.4014024    
  17800000   298.44196     -7040.7515      1215.1498     -3156.8054      23.368742    
  17850000   310.94257     -7061.8749      1169.6235     -3111.6692     -64.516833    
  17900000   306.68961     -7049.2389      1158.356      -3148.3324     -18.426783    
  17950000   302.46246     -7056.4426      1163.7655     -3187.9277     -13.65822     
  18000000   308.04192     -7014.2961      1144.2776     -3115.3752     -18.546621    
  18050000   303.3812      -7033.3078      1127.6112     -3192.7314     -1.6324713    
  18100000   299.4329      -7031.4118      1133.8264     -3219.9275     -5.1630563    
  18150000   301.60138     -7008.7611      1129.8504     -3181.8614      13.066111    
  18200000   293.87074     -7042.2958      1117.0501     -3297.3271      3.3232836    
  18250000   297.85156     -7034.6215      1202.6878     -3168.417      -17.68149     
  18300000   306.13459     -7015.2858      1175.3559     -3102.3427      32.305558    
  18350000   308.05118     -7010.4748      1199.376      -3056.3727      16.767293    
  18400000   300.91103     -7031.9892      1146.6799     -3194.4335      47.197466    
  18450000   294.14009     -6996.0044      1173.5904     -3192.0868     -9.4603478    
  18500000   301.3983      -7044.5559      1196.8994     -3152.4233     -9.8482822    
  18550000   300.44592     -7053.1051      1131.6532     -3234.7353      31.269407    
  18600000   305.82342     -7015.4946      1149.7839     -3130.9061     -16.736898    
  18650000   309.87134     -7010.1891      1155.8192     -3083.3672     -5.4106848    
  18700000   302.3235      -7037.9852      1202.4719     -3132.0066     -14.460447    
  18750000   301.44313     -7091.4339      1244.4603     -3151.3395     -21.529488    
  18800000   295.84281     -7048.5164      1157.0313     -3245.9315     -47.811559    
  18850000   300.49763     -6999.1944      1157.054      -3154.9614     -1.1470522    
  18900000   303.80438     -7058.9562      1141.52       -3200.6868     -12.643875    
  18950000   296.82531     -7051.3565      1150.7881     -3246.2288      17.116439    
  19000000   301.85118     -7007.7966      1155.9535     -3152.5599     -6.6424448    
  19050000   300.20816     -7055.3055      1169.5438     -3201.1712     -5.4289215    
  19100000   300.23611     -6992.5791      1202.6629     -3105.0757      3.6329899    
  19150000   304.92459     -7031.6581      1211.3219     -3093.5694      14.23116     
  19200000   303.43855     -7006.849       1159.4339     -3133.9371      18.333956    
  19250000   304.33869     -7051.7054      1186.3149     -3143.8629     -0.40872154   
  19300000   293.46171     -7044.2364      1147.3741     -3272.6015     -29.961023    
  19350000   300.54565     -7046.6839      1167.7784     -3191.297      -21.253114    
  19400000   302.35776     -7031.1986      1139.1495     -3188.2359     -14.238633    
  19450000   298.03447     -7031.8203      1153.8751     -3212.7928      0.48681292   
  19500000   302.40867     -7022.3373      1111.1285     -3206.9403     -3.6871833    
  19550000   308.65203     -7029.7583      1141.5133     -3128.1459     -9.7626581    
  19600000   304.08864     -7038.5672      1150.6304     -3168.6453      11.366958    
  19650000   307.742       -7042.5527      1194.6478     -3095.9436      17.412756    
  19700000   296.97742     -7023.9509      1155.4529     -3212.7982     -14.055263    
  19750000   304.8979      -7053.935       1213.6718     -3113.735      -0.71272947   
  19800000   297.32276     -7020.3544      1155.8111     -3205.7553     -3.4611913    
  19850000   301.68771     -7027.9841      1171.657      -3158.5059      13.348564    
  19900000   305.78803     -7028.2488      1127.747      -3166.0137      6.9335304    
  19950000   296.17298     -7058.2835      1175.2921     -3234.4852      8.6743138    
  20000000   295.3311      -7020.7961      1182.4276     -3197.3908      1.0588304    
  20050000   307.81467     -7076.539       1162.2298     -3161.698       18.414248    
  20100000   295.57426     -7028.1399      1131.094      -3253.8937     -6.9836882    
  20150000   298.68824     -7039.8901      1175.3271     -3193.5642      10.788348    
  20200000   298.60382     -7030.924       1133.3798     -3227.3004     -26.20826     
  20250000   300.73193     -7036.9345      1142.337      -3205.3232      13.30925     
  20300000   304.61667     -7078.4226      1132.7629     -3221.6464     -14.318454    
  20350000   292.77435     -7049.7954      1167.85       -3263.8312     -1.2545101    
  20400000   301.97544     -7073.94        1233.7182     -3139.8275      29.633231    
  20450000   289.87111     -7024.0457      1180.1862     -3251.7074      41.467181    
  20500000   301.39448     -7075.8372      1135.5528     -3245.0853      18.972738    
  20550000   303.35185     -7060.4891      1195.2484     -3152.538      -15.828758    
  20600000   296.29705     -7078.1806      1141.6104     -3286.9546     -13.44162     
  20650000   296.9548      -7073.2911      1162.0228     -3255.7707     -14.861607    
  20700000   298.67095     -7072.5334      1169.6448     -3232.0445     -28.058493    
  20750000   303.6562      -7054.5619      1157.176      -3181.9616      8.4458134    
  20800000   298.64393     -7095.5081      1186.0095     -3238.8962     -24.621785    
  20850000   299.08065     -7082.7885      1129.54       -3278.7407      6.89582      
  20900000   300.37996     -7068.487       1171.7784     -3210.5818      0.80008536   
  20950000   304.34223     -7067.3209      1191.7511     -3154.0107      15.838017    
  21000000   311.83841     -7043.4347      1179.8599     -3074.9816     -24.419619    
  21050000   300.47136     -7101.3911      1169.2535     -3245.1935      3.9569246    
  21100000   300.29188     -7067.1725      1103.5192     -3278.3142      30.937345    
  21150000   299.54866     -7075.4355      1185.9231     -3210.8194     -2.3917081    
  21200000   298.19085     -7051.4452      1128.0719     -3256.8225      0.56709291   
  21250000   312.0946      -7021.3428      1131.9229     -3098.5359      17.444025    
  21300000   301.59342     -7070.1203      1166.6738     -3206.4684      45.71934     
  21350000   297.257       -7070.2056      1144.7357     -3267.27       -31.741483    
  21400000   294.7183      -7055.9353      1150.1842     -3270.2533      36.407755    
  21450000   300.81572     -7085.2064      1214.3112     -3180.8716      45.571404    
  21500000   300.33864     -7110.8029      1215.6819     -3209.3636      8.4764683    
  21550000   300.41441     -7099.468       1150.4946     -3262.5385      74.674526    
  21600000   296.42096     -7055.4896      1126.4748     -3278.291       7.5972975    
  21650000   303.57738     -7063.6616      1138.7651     -3210.1769     -0.015436992  
  21700000   301.56389     -7073.6517      1147.5068     -3229.4308     -20.108331    
  21750000   302.84993     -7089.3444      1152.6502     -3228.4798      19.723793    
  21800000   299.1737      -7046.4256      1177.5437     -3193.542       34.286452    
  21850000   300.2151      -7089.8801      1183.5542     -3221.6733     -11.712455    
  21900000   298.27174     -7073.258       1150.7979     -3255.1858     -6.5672627    
  21950000   300.58122     -7066.8704      1184.3852     -3194.5587     -23.619675    
  22000000   300.18539     -7048.9803      1162.6183     -3201.9752     -13.439372    
  22050000   296.08654     -7051.6563      1165.367      -3238.5561      27.506865    
  22100000   304.38913     -7075.365       1135.5896     -3217.7968      14.626832    
  22150000   303.24687     -7064.9549      1132.9494     -3220.2415      4.2980921    
  22200000   299.33347     -7039.3476      1161.554      -3201.025       39.228793    
  22250000   303.93508     -7093.5982      1150.1982     -3225.4818      9.6762708    
  22300000   301.55194     -7063.4616      1165.2075     -3201.647      -4.6918587    
  22350000   294.13528     -7071.9747      1162.3837     -3279.3068     -14.993042    
  22400000   304.83795     -7088.3333      1160.3424     -3201.9988      20.491284    
  22450000   299.89125     -7062.9047      1171.2597     -3209.8884     -2.601208     
  22500000   302.98797     -7039.5896      1197.1819     -3132.959       3.2357247    
  22550000   300.84799     -7065.6097      1126.8784     -3248.4191      14.032149    
  22600000   302.11684     -7057.7106      1115.22       -3240.8319     -29.753414    
  22650000   298.39633     -7051.712       1172.5778     -3210.7459     -25.217865    
  22700000   299.42898     -7049.2586      1158.2201     -3213.4158     -0.61546445   
  22750000   304.39408     -7050.5874      1187.4744     -3141.0902      3.1882493    
  22800000   298.54587     -7024.6748      1113.1434     -3241.8059      4.6619932    
  22850000   302.65919     -7043.5361      1195.5677     -3141.4598     -22.71546     
  22900000   298.51259     -7077.5698      1184.6642     -3223.4775     -19.606174    
  22950000   304.13589     -7107.9978      1147.8589     -3240.425      -28.215488    
  23000000   306.62813     -7044.5562      1161.5583     -3140.9973     -50.793274    
  23050000   301.68906     -7018.89        1136.3128     -3184.7438     -10.961164    
  23100000   304.21607     -7040.6235      1171.006      -3149.1865      22.080911    
  23150000   303.01392     -7065.9339      1167.0528     -3189.2002     -7.3595006    
  23200000   308.8661      -7061.0455      1164.9074     -3134.1246      34.942536    
  23250000   306.05722     -7047.7884      1160.8618     -3150.0313      21.509821    
  23300000   295.58039     -7072.9629      1127.5198     -3302.2361      10.775341    
  23350000   296.50516     -7083.2272      1080.2327     -3351.5178     -1.2055591    
  23400000   296.73311     -7043.2951      1153.7137     -3236.0663     -7.2065166    
  23450000   307.21347     -7071.757       1107.4332     -3217.0889     -36.630159    
  23500000   301.5491      -7022.8663      1125.3061     -3200.9785     -10.133115    
  23550000   304.59474     -7070.1882      1131.3501     -3215.021      -4.0177282    
  23600000   314.43334     -7058.9799      1124.5692     -3122.6126     -18.469476    
  23650000   294.68346     -7089.9623      1195.4863     -3259.2898     -15.545464    
  23700000   304.3626      -7059.4673      1136.7702     -3200.9559      46.702273    
  23750000   302.40268     -7068.2589      1151.4289     -3212.6151      21.25957     
  23800000   302.80512     -7049.1445      1159.8853     -3181.4456      13.320514    
  23850000   302.02626     -7065.0033      1159.7505     -3204.404       5.0185107    
  23900000   302.26213     -6997.6812      1202.166      -3092.5572     -29.366823    
  23950000   307.30048     -7028.3701      1141.868      -3138.489       34.120833    
  24000000   303.08342     -7058.7192      1146.6041     -3201.8128      10.210689    
  24050000   303.91933     -7017.8217      1165.9545     -3134.0898     -22.726856    
  24100000   298.54478     -7021.3999      1144.8396     -3206.8444     -16.412947    
  24150000   305.12692     -7040.7197      1162.6882     -3149.4553     -13.662657    
  24200000   306.05917     -7013.9615      1191.851      -3085.1977      17.18261     
  24250000   302.75296     -7008.1328      1151.0606     -3149.7249      50.632914    
  24300000   293.18582     -7067.0129      1164.5319     -3280.6873     -15.078725    
  24350000   305.50596     -7009.2884      1143.281      -3134.0417     -21.330459    
  24400000   291.11391     -7043.9051      1160.3555     -3280.2838      21.125948    
  24450000   302.88123     -7012.898       1137.3418     -3167.062       0.35424103   
  24500000   303.48111     -7060.3962      1121.9677     -3224.5698     -0.83499775   
  24550000   296.01595     -7027.1882      1121.501      -3258.5853     -6.9087831    
  24600000   294.99886     -7016.8631      1159.4095     -3219.4469      29.762499    
  24650000   309.8882      -7051.8085      1155.8333     -3124.8215     -40.054356    
  24700000   304.45897     -7027.9488      1214.0051     -3091.3406      0.25468291   
  24750000   297.25888     -7016.4957      1162.5499     -3195.7289      9.2038355    
  24800000   297.80267     -7042.7139      1196.361      -3183.2733     -48.981136    
  24850000   306.72672     -7032.3497      1136.8038     -3152.6637      8.3332683    
  24900000   293.33858     -7034.7512      1198.7343     -3212.8572     -23.592783    
  24950000   305.79297     -7043.9694      1192.6796     -3116.7575     -0.43859266   
  25000000   300.5895      -6997.2044      1193.7872     -3115.4166      18.007987    
  25050000   296.77126     -6980.0965      1189.4415     -3136.7987      22.960188    
  25100000   298.9309      -7012.1282      1162.5843     -3176.3752      48.409129    
  25150000   294.13437     -7003.8298      1117.5102     -3256.0437      15.530984    
  25200000   299.91055     -7002.2279      1148.9322     -3171.3665      23.046763    
  25250000   306.51568     -7042.2843      1136.3482     -3164.941       14.949579    
  25300000   307.8447      -7019.9441      1158.1065     -3108.9579      3.0106912    
  25350000   296.69207     -6990.7011      1117.2964     -3220.2566     -28.970357    
  25400000   302.12026     -6993.0624      1159.4804     -3131.8926     -18.267845    
  25450000   297.62571     -7009.8377      1145.5864     -3202.7541     -35.024914    
  25500000   297.84625     -7008.2322      1179.4278     -3165.3351      51.618164    
  25550000   296.1297      -7041.0679      1140.118      -3252.8307      36.942763    
  25600000   296.81743     -6975.3641      1204.8937     -3116.2013      4.0569568    
  25650000   296.10674     -6995.5719      1187.2921     -3160.366       8.7877376    
  25700000   301.95791     -7056.5225      1179.1704     -3177.1146     -2.8302598    
  25750000   304.12702     -7025.3429      1165.021      -3140.6873      3.2591184    
  25800000   298.4935      -7039.5174      1135.2707     -3234.9894      8.0068498    
  25850000   298.55281     -7013.3673      1149.5977     -3193.9819      16.235865    
  25900000   299.40913     -7037.1005      1150.4366     -3209.2187     -5.8442845    
  25950000   300.35327     -7018.2457      1185.0749     -3147.2827     -23.08768     
  26000000   302.54661     -7011.9625      1193.8937     -3112.5669      9.2404782    
  26050000   299.66659     -7021.397       1155.7897     -3185.8597      10.980587    
  26100000   307.22652     -7027.9419      1200.5093     -3080.0809      23.353327    
  26150000   303.67381     -7009.6379      1133.5293     -3160.5268     -5.7833434    
  26200000   306.97933     -7017.0874      1179.9091     -3092.0371      9.8554842    
  26250000   306.21739     -7019.2304      1218.3998     -3062.503      -27.303973    
  26300000   298.26375     -7014.0096      1193.8728     -3152.934       25.804737    
  26350000   299.71489     -7024.4504      1125.821      -3218.45        16.972733    
  26400000   294.3345      -7030.3299      1184.9787     -3213.2855      8.626171     
  26450000   303.09052     -7013.4428      1212.8566     -3090.2203     -20.050497    
  26500000   300.48011     -7013.3829      1147.8823     -3178.4782     -6.696745     
  26550000   301.46237     -7022.0988      1185.0054     -3141.2871      49.261014    
  26600000   290.44338     -7027.5487      1159.968      -3270.3111     -11.518042    
  26650000   308.63425     -7025.0057      1147.9925     -3117.0729     -0.86864889   
  26700000   300.56574     -7036.556       1133.7507     -3215.0171      9.9071025    
  26750000   294.76925     -7036.3021      1150.3289     -3250.0199     -9.6596831    
  26800000   300.70173     -6973.0798      1124.4149     -3159.6607     -34.489458    
  26850000   302.47574     -7008.3475      1125.1817     -3178.2976      36.478941    
  26900000   301.65138     -6977.4833      1182.2357     -3097.7512     -0.087158385  
  26950000   300.40727     -7029.2469      1170.8568     -3172.0191      14.209562    
  27000000   295.47575     -7006.8532      1158.8445     -3205.7374     -15.804859    
  27050000   297.75185     -7068.1284      1135.4875     -3270.0157     -37.526054    
  27100000   301.73125     -6985.9725      1240.7448     -3047.017       2.3488813    
  27150000   301.47578     -7030.8191      1188.9813     -3145.9117      26.385063    
  27200000   303.26892     -7045.5122      1189.6761     -3143.8749      0.55486514   
  27250000   294.27592     -7009.9088      1133.6708     -3244.6961     -27.450853    
  27300000   299.14342     -7026.8352      1155.2662     -3196.4998      41.55274     
  27350000   297.64575     -7015.8514      1152.935      -3201.2401      23.090676    
  27400000   299.90991     -7015.7381      1133.0787     -3200.736       33.894398    
  27450000   291.86209     -7027.3811      1154.1613     -3263.2635      41.97095     
  27500000   295.7637      -7005.6357      1155.8        -3204.9895      15.537939    
  27550000   301.41244     -7033.844       1158.3707     -3180.1135      26.757218    
  27600000   304.82002     -7032.5295      1130.6593     -3176.0385      13.839578    
  27650000   295.96394     -7011.0309      1155.3651     -3209.0289      8.2679035    
  27700000   300.27639     -7054.842       1151.8854     -3217.756      -38.955937    
  27750000   299.88734     -7010.4384      1123.4246     -3205.2921     -37.14533     
  27800000   299.15262     -7026.1907      1138.7073     -3212.3319     -14.31308     
  27850000   300.42001     -7013.2661      1166.6528     -3160.1284      3.6301208    
  27900000   297.65369     -7012.1359      1155.7507     -3194.638      -28.391026    
  27950000   298.0395      -7021.3731      1197.0379     -3159.1378     -2.8090182    
  28000000   300.62869     -7051.1154      1155.1169     -3207.6475     -36.998714    
  28050000   299.31672     -7016.4213      1137.1952     -3202.6072     -6.7502822    
  28100000   306.16691     -7034.6273      1131.98       -3164.771      -2.9744469    
  28150000   302.00232     -7045.9535      1193.1557     -3152.1631      14.484303    
  28200000   291.11234     -7010.8205      1093.0023     -3314.5665      22.775992    
  28250000   298.60986     -7015.7151      1151.4705     -3193.9467      15.890849    
  28300000   301.36749     -7052.199       1157.916      -3199.3253     -16.443591    
  28350000   294.29582     -7041.3734      1114.601      -3295.0526     -12.468609    
  28400000   303.59526     -7033.1125      1177.1543     -3141.0788      0.77530841   
  28450000   301.176       -7047.8536      1121.6899     -3232.9183     -18.426119    
  28500000   289.232       -7046.1744      1192.8277     -3266.9097      15.840106    
  28550000   306.73041     -7022.4585      1147.3829     -3132.1603      28.835345    
  28600000   299.59923     -7053.0878      1172.1499     -3201.7926      30.842922    
  28650000   298.51779     -7051.4823      1160.4891     -3221.5186     -10.343309    
  28700000   301.81516     -7033.0442      1125.3032     -3208.78        4.4493623    
  28750000   299.72039     -7055.5867      1142.4055     -3232.9525     -16.563129    
  28800000   303.51636     -7030.0088      1145.3529     -3170.4821      2.5990708    
  28850000   305.6857      -7041.1401      1165.7208     -3141.8463      51.433996    
  28900000   310.11858     -7060.55        1126.0958     -3161.2405      12.063372    
  28950000   297.27041     -7081.4873      1156.6433     -3266.5241      6.4671449    
  29000000   297.23916     -7042.0526      1166.4751     -3217.5371      14.518833    
  29050000   301.65319     -7067.0483      1179.7948     -3189.741       10.436447    
  29100000   299.93388     -7047.1553      1166.2024     -3198.8152     -45.882634    
  29150000   302.17727     -7070.1966      1146.0511     -3221.9464      15.343388    
  29200000   306.02802     -7072.8042      1123.6039     -3212.566      -12.73395     
  29250000   296.61227     -7094.686       1132.0269     -3310.2245      21.657625    
  29300000   307.09162     -7044.4762      1195.3426     -3102.9883      6.4736219    
  29350000   300.01426     -7037.6976      1136.6974     -3218.1436     -17.324238    
  29400000   304.4198      -7076.8088      1186.4331     -3168.1229      26.97471     
  29450000   306.75595     -7089.9652      1150.0211     -3196.8004      9.3388327    
  29500000   292.65808     -7091.2712      1135.6149     -3338.5818     -9.0228087    
  29550000   298.51374     -7056.4835      1175.1226     -3211.9225      6.4561315    
  29600000   299.82365     -7082.2135      1143.7928     -3257.2687      15.732318    
  29650000   306.72779     -7078.2983      1200.5447     -3134.8617     -52.55553     
  29700000   304.23501     -7063.74        1116.1882     -3226.9515      38.62143     
  29750000   298.74736     -7103.6038      1150.5576     -3281.5188      4.8128497    
  29800000   292.14036     -7051.9412      1144.0918     -3295.4047      23.979564    
  29850000   296.10703     -7046.3676      1126.1566     -3272.2946      40.838086    
  29900000   299.44435     -7057.848       1147.7942     -3232.2936      5.6734452    
  29950000   295.49441     -7103.8768      1179.5469     -3281.8918      7.6036812    
  30000000   296.73311     -7040.924       1129.652      -3257.7568      0.47403713   
  30050000   300.62786     -7066.0174      1207.42       -3170.2538     -2.572986     
  30100000   295.93068     -7049.1767      1186.1236     -3216.7137      0.20658037   
  30150000   297.76928     -7069.5967      1171.35       -3235.4657     -7.1070886    
  30200000   305.12807     -7064.3992      1176.7325     -3159.0803      5.1984888    
  30250000   297.1407      -7081.724       1155.7937     -3268.7703     -3.9625839    
  30300000   307.52907     -7050.1439      1113.2128     -3186.8738      18.642443    
  30350000   296.81272     -7086.9078      1127.7849     -3304.8959     -8.926794     
  30400000   301.01358     -7073.1577      1187.064      -3194.3008      25.490045    
  30450000   296.78026     -7060.069       1178.1353     -3227.997       33.17279     
  30500000   292.26151     -7030.5658      1159.4961     -3257.5416     -15.864567    
  30550000   297.99272     -7063.5981      1165.952      -3232.8671      13.768194    
  30600000   296.84997     -7073.5868      1143.4946     -3275.532      -2.4399979    
  30650000   308.17862     -7028.0586      1152.3841     -3119.8087     -19.025273    
  30700000   295.63073     -7028.2013      1167.8551     -3216.6891      18.118714    
  30750000   298.86891     -7065.0311      1166.7491     -3225.6676     -19.964151    
  30800000   296.99692     -7068.9399      1171.2369     -3241.8288     -3.9113928    
  30850000   296.5368      -7035.4193      1186.1546     -3197.5051     -22.304076    
  30900000   303.76773     -7074.9715      1144.7657     -3213.784       15.279622    
  30950000   296.4453      -7077.5111      1148.9753     -3277.5945     -25.737719    
  31000000   291.00023     -7029.653       1166.3453     -3261.0584      9.047983     
  31050000   304.40221     -7069.214       1173.7507     -3173.3677      27.322723    
  31100000   297.74191     -7030.5647      1159.7533     -3208.2752      40.487345    
  31150000   295.91495     -7068.7534      1147.5814     -3274.9732      29.079493    
  31200000   298.91569     -7052.6297      1140.7074     -3238.8896     -40.034266    
  31250000   296.26738     -7088.6016      1148.4628     -3290.7884      11.321227    
  31300000   296.3603      -7008.2247      1134.289      -3223.7544     -30.102028    
  31350000   300.85143     -7052.269       1168.3202     -3193.6059      34.073658    
  31400000   298.10414     -7048.9822      1118.9871     -3264.2197      0.76774807   
  31450000   298.31521     -7028.2079      1170.9927     -3189.5523     -7.5511654    
  31500000   305.85658     -7009.2391      1133.9283     -3140.2097      2.461996     
  31550000   304.03042     -7039.4028      1136.0334     -3184.5987      26.170659    
  31600000   304.40384     -7061.8596      1182.4443     -3157.3052     -1.8447469    
  31650000   296.78976     -7030.1836      1135.7492     -3240.4128      18.699527    
  31700000   306.56317     -7042.7071      1118.0825     -3183.2048      12.035719    
  31750000   299.31635     -7055.3802      1177.6067     -3201.1579     -19.447152    
  31800000   307.38853     -7029.1177      1132.6541     -3147.6631     -20.863889    
  31850000   298.28759     -7082.2464      1130.2457     -3284.5848      40.531181    
  31900000   293.425       -7079.9929      1162.7202     -3293.3401      27.262987    
  31950000   302.65828     -7068.7878      1167.3055     -3194.9817      13.121521    
  32000000   297.95315     -7045.8396      1197.1589     -3184.2554     -26.785281    
  32050000   305.39313     -7107.005       1180.3308     -3195.7175      27.143642    
  32100000   295.01088     -7060.1211      1165.6932     -3256.3137      25.045076    
  32150000   296.58355     -7072.13        1151.193      -3268.7592      16.93263     
  32200000   300.28063     -7053.0919      1143.0228     -3224.8306      2.4908707    
  32250000   301.75065     -7028.7825      1113.7783     -3216.6201     -20.432811    
  32300000   294.77686     -7062.202       1096.402      -3329.7786     -6.3719592    
  32350000   302.81032     -7079.1385      1147.029      -3224.2493     -13.442057    
  32400000   292.34794     -7070.1646      1144.591      -3311.2726     -3.8968778    
  32450000   300.48552     -7040.001       1160.6519     -3192.2783     -30.725244    
  32500000   296.80901     -7074.5244      1177.3228     -3243.0079      13.535567    
  32550000   297.81402     -7056.7433      1117.621      -3275.9412     -5.9576069    
  32600000   302.80185     -7063.1106      1186.7509     -3168.5753      3.2223135    
  32650000   300.44097     -7027.2992      1157.9605     -3182.6664      1.1033824    
  32700000   292.53611     -7076.949       1183.6877     -3277.2776      31.495149    
  32750000   298.47471     -7081.8697      1150.4231     -3262.3574      49.416581    
  32800000   299.08967     -7041.1349      1163.6331     -3202.9133      11.367303    
  32850000   292.59965     -7081.2438      1193.5514     -3271.1406      10.684416    
  32900000   293.66727     -7078.7338      1204.8566     -3247.7781     -14.779837    
  32950000   302.4568      -7078.918       1188.8374     -3185.3818     -25.534194    
  33000000   294.87058     -7117.8111      1112.5591     -3368.3924     -48.858185    
  33050000   302.23014     -7064.4172      1128.0769     -3233.6684      18.413104    
  33100000   294.06871     -7059.4685      1137.6592     -3292.1204      12.431688    
  33150000   299.18945     -7056.1246      1191.1213     -3189.5225     -16.739216    
  33200000   306.58136     -7079.8184      1142.9107     -3195.3253     -0.05044308   
  33250000   299.59068     -7067.8114      1168.4925     -3220.2502     -11.08245     
  33300000   294.50237     -7066.6264      1118.8526     -3314.2069     -9.2315315    
  33350000   296.22455     -7058.6852      1150.4551     -3259.2628      13.955767    
  33400000   297.1734      -7104.3522      1142.5833     -3304.3165      31.614109    
  33450000   298.5098      -7083.4558      1175.5861     -3238.4666      15.618144    
  33500000   291.36708     -7102.2371      1162.5725     -3334.1348     -24.540768    
  33550000   304.92152     -7072.9679      1141.1413     -3205.0872     -31.280512    
  33600000   302.53978     -7098.1826      1124.7293     -3268.0125      8.4034081    
  33650000   301.84363     -7064.6502      1155.9725     -3209.4621     -1.4530502    
  33700000   298.9938      -7051.4367      1166.9687     -3210.7368     -6.2546471    
  33750000   294.01552     -7080.115       1168.2681     -3282.6337     -41.071695    
  33800000   299.17674     -7102.178       1147.4512     -3279.3597      1.5278506    
  33850000   301.15964     -7085.0514      1204.2913     -3187.6611     -17.632507    
  33900000   295.59734     -7107.1664      1185.1679     -3278.6399     -16.785366    
  33950000   301.84693     -7069.6255      1166.2672     -3204.1132     -10.191264    
  34000000   297.3669      -7101.9801      1149.3853     -3293.4121     -28.270378    
  34050000   301.82009     -7107.255       1132.6331     -3275.6168      1.3098203    
  34100000   305.57912     -7083.1129      1145.363      -3205.1299     -21.957027    
  34150000   300.69379     -7079.3987      1173.5635     -3216.902       1.8009594    
  34200000   300.87709     -7104.0522      1162.8088     -3250.671       42.35896     
  34250000   301.30157     -7095.9438      1119.8275     -3281.748       24.6493      
  34300000   289.99317     -7093.2308      1152.5243     -3347.4627      14.944267    
  34350000   301.76766     -7098.0214      1161.8021     -3237.6831      25.359506    
  34400000   303.20126     -7107.9114      1138.9205     -3257.6348      4.1866884    
  34450000   299.70493     -7136.556       1171.5042     -3284.9614      28.429389    
  34500000   292.25855     -7092.9657      1146.783      -3332.681      -39.450731    
  34550000   302.07036     -7097.5402      1149.3357     -3246.9613     -0.3471625    
  34600000   300.37938     -7115.1463      1169.8295     -3259.1951     -26.001246    
  34650000   288.95915     -7093.7478      1165.4672     -3344.2836      8.6996066    
  34700000   302.42332     -7131.6679      1189.6868     -3237.5816     -15.268019    
  34750000   290.39968     -7122.3         1106.2055     -3419.2156     -2.6430551    
  34800000   300.63176     -7068.6769      1128.6427     -3251.6557      7.2325688    
  34850000   297.74297     -7096.0909      1132.4211     -3301.1241     -0.44127528   
  34900000   294.78964     -7098.7497      1153.8599     -3308.754       19.728924    
  34950000   303.15463     -7106.2993      1134.9114     -3260.4488     -0.46840738   
  35000000   300.39324     -7138.5703      1148.4427     -3303.882      -13.347822    
  35050000   301.56624     -7130.2536      1158.6089     -3274.9097      6.0680333    
  35100000   298.9438      -7089.6518      1188.8838     -3227.4839     -23.701579    
  35150000   301.50526     -7134.5879      1149.7434     -3288.6549      11.284977    
  35200000   300.58703     -7104.5413      1189.1389     -3227.4239      51.657686    
  35250000   299.37578     -7139.9017      1162.9647     -3299.79        12.126507    
  35300000   300.3043      -7136.9341      1135.814      -3315.6698      13.273165    
  35350000   294.74831     -7097.5999      1133.6904     -3328.1433      14.193381    
  35400000   301.28396     -7126.4804      1139.3003     -3292.9693      8.7362777    
  35450000   299.00091     -7105.1841      1189.1607     -3242.2287     -43.01417     
  35500000   304.80359     -7095.4296      1174.4304     -3195.3144     -24.443014    
  35550000   304.09914     -7121.3661      1097.8028     -3304.178       9.534433     
  35600000   294.19536     -7101.6503      1189.8682     -3280.9607      21.810591    
  35650000   299.3957      -7126.8896      1159.9886     -3289.5759     -8.5334743    
  35700000   295.46424     -7129.6455      1143.2807     -3344.1964     -17.184383    
  35750000   294.88815     -7135.2072      1139.0716     -3359.119      -20.808663    
  35800000   310.51443     -7146.3346      1154.4443     -3215.1366      18.44345     
  35850000   302.19209     -7114.6023      1164.1107     -3248.1601     -8.501995     
  35900000   300.43049     -7131.5266      1149.4803     -3295.4677     -28.161743    
  35950000   287.3327      -7170.7666      1153.6539     -3447.6601      48.988619    
  36000000   301.56865     -7127.1694      1090.0644     -3340.3485      24.821404    
  36050000   308.64563     -7110.9129      1163.983      -3186.8879      21.582354    
  36100000   298.45654     -7103.3721      1134.264      -3300.1814      3.7387347    
  36150000   300.1263      -7128.5976      1201.6966     -3243.0426      5.7718336    
  36200000   308.85871     -7094.0413      1144.8161     -3187.2778      48.24355     
  36250000   296.97603     -7096.7458      1128.4669     -3312.5915      13.885462    
  36300000   291.7263      -7133.8826      1117.6961     -3407.4444     -18.601794    
  36350000   293.61195     -7115.0154      1122.8847     -3366.5263     -37.188109    
  36400000   298.06441     -7133.8176      1178.5578     -3289.8396     -13.343432    
  36450000   296.58931     -7169.039       1161.4601     -3355.3498     -1.7796827    
  36500000   296.50401     -7130.4009      1157.9247     -3321.0099      8.4701608    
  36550000   302.18464     -7137.0954      1161.5439     -3273.2864      2.6376206    
  36600000   299.66505     -7140.4709      1189.9732     -3270.7639     -0.75303448   
  36650000   300.23693     -7124.2871      1139.8833     -3299.5561      21.111886    
  36700000   301.16173     -7162.2541      1166.0702     -3303.0661     -23.034184    
  36750000   297.56809     -7124.4567      1168.4952     -3294.9797      17.973998    
  36800000   296.93201     -7146.914       1155.6159     -3336.0044     -8.99402      
  36850000   307.27307     -7151.5981      1197.9194     -3205.9107      13.419001    
  36900000   296.10542     -7114.6857      1193.1805     -3273.6032      0.28842659   
  36950000   298.33206     -7158.9273      1161.1346     -3329.979      -32.72746     
  37000000   299.88926     -7157.9714      1131.5894     -3344.6432      37.53939     
  37050000   298.9408      -7148.5008      1142.7863     -3332.4572      17.260418    
  37100000   306.45777     -7131.1518      1113.1878     -3277.4868      34.132908    
  37150000   299.93308     -7152.5797      1180.2518     -3290.1973      11.32186     
  37200000   300.65754     -7169.3097      1158.8181     -3321.8826      3.4332998    
  37250000   289.79662     -7120.9164      1208.6556     -3320.7747      83.544466    
  37300000   294.11477     -7113.6571      1189.8466     -3293.7097     -7.0108055    
  37350000   296.80924     -7196.4043      1137.556      -3404.6524     -3.470326     
  37400000   302.32637     -7158.1107      1160.2828     -3294.2954      10.361572    
  37450000   296.32339     -7153.1754      1152.0232     -3351.301       41.195156    
  37500000   300.07132     -7157.9026      1153.1345     -3321.4013      53.469952    
  37550000   306.20293     -7154.4742      1122.5123     -3293.7637     -29.497988    
  37600000   296.0574      -7129.1977      1178.8346     -3302.8905     -7.9770916    
  37650000   298.12541     -7111.7238      1143.0603     -3302.6978     -0.70795354   
  37700000   297.63647     -7139.4518      1188.5752     -3289.2833     -16.40827     
  37750000   298.70459     -7125.7176      1142.9246     -3311.6481      39.546827    
  37800000   303.96113     -7132.1015      1143.3823     -3270.568       9.2722659    
  37850000   299.63729     -7137.0992      1166.414      -3291.1997     -2.9273966    
  37900000   303.09331     -7143.8389      1136.061      -3297.3872     -2.8181004    
  37950000   295.36406     -7116.1772      1169.4118     -3305.4929      29.294705    
  38000000   291.26174     -7093.0251      1140.1381     -3348.2992      19.793823    
  38050000   301.19679     -7115.3081      1164.5263     -3257.3506     -20.825116    
  38100000   299.39196     -7120.6637      1135.2158     -3308.1562      13.629763    
  38150000   298.17533     -7118.9771      1098.4307     -3354.1344      26.197575    
  38200000   302.44852     -7123.1422      1160.045      -3258.4724     -1.0748477    
  38250000   295.38879     -7119.1277      1150.5321     -3327.1019     -8.0874432    
  38300000   300.7998      -7135.6627      1155.2022     -3290.5793     -9.6619511    
  38350000   298.4151      -7063.5709      1120.3339     -3274.6807      6.9080246    
  38400000   294.62066     -7111.4696      1148.3115     -3328.5335      10.593928    
  38450000   310.03005     -7112.9545      1135.6072     -3204.9252      27.884677    
  38500000   303.29634     -7094.6398      1193.8656     -3188.5679     -21.123244    
  38550000   290.29035     -7117.5676      1200.1963     -3321.4701      34.369347    
  38600000   302.54404     -7106.3584      1175.3264     -3225.553       2.9033605    
  38650000   306.22039     -7109.194       1111.4754     -3259.3642     -3.8806114    
  38700000   299.08234     -7076.9949      1162.6748     -3239.7971     -29.91752     
  38750000   299.66082     -7126.4802      1130.2744     -3316.5099      1.1739442    
  38800000   298.44178     -7102.8293      1212.7144     -3221.3201      19.07461     
  38850000   306.2751      -7099.3625      1165.6139     -3194.9049     -25.764078    
  38900000   300.05515     -7048.5543      1215.2725     -3150.0596      37.497216    
  38950000   294.51695     -7082.5337      1172.7686     -3276.0679     -13.242335    
  39000000   301.12835     -7071.9114      1214.9833     -3164.1089      15.647589    
  39050000   300.95212     -7072.6306      1162.8641     -3218.5231      23.812367    
  39100000   299.39528     -7094.4992      1184.1735     -3233.0044      2.3449776    
  39150000   298.22777     -7081.3271      1171.1247     -3243.3214     -39.654416    
  39200000   299.14579     -7103.0308      1159.2848     -3268.6556      16.108847    
  39250000   305.92364     -7067.0905      1129.1406     -3202.2491     -1.3914432    
  39300000   299.65472     -7070.8623      1147.9686     -3243.2523      11.75871     
  39350000   305.98525     -7067.544       1124.9597     -3206.3325     -24.317876    
  39400000   297.94535     -7064.7647      1151.3113     -3249.0979     -10.774015    
  39450000   297.44661     -7088.3391      1128.2646     -3300.179       14.256189    
  39500000   297.58678     -7090.3135      1149.8979     -3279.2666     -22.016615    
  39550000   300.15263     -7078.3163      1177.3228     -3216.8996      9.0577339    
  39600000   303.5935      -7067.049       1162.5207     -3189.6646     -2.0059731    
  39650000   294.93952     -7092.1135      1144.1582     -3310.4792     -4.2961435    
  39700000   299.2741      -7073.889       1137.3534     -3260.2979     -29.232319    
  39750000   303.89537     -7076.0494      1160.8283     -3197.658      -11.427769    
  39800000   297.88991     -7085.0483      1166.2174     -3254.9713      11.389898    
  39850000   300.27674     -7093.0666      1090.3419     -3317.5209      22.459333    
  39900000   305.90932     -7069.9361      1111.7801     -3222.5833     -16.614377    
  39950000   302.17021     -7092.9461      1225.5895     -3165.2206      17.224254    
  40000000   294.43767     -7082.5533      1139.797      -3309.768       5.7958251    
  40050000   301.96869     -7110.9575      1151.6572     -3258.9663     -11.092475    
  40100000   305.76212     -7068.2593      1144.9617     -3189.0412      26.694984    
  40150000   296.38544     -7094.5691      1093.839      -3350.324      -18.212381    
  40200000   300.75292     -7052.6551      1210.3948     -3152.7983      3.9422836    
  40250000   301.88904     -7095.0635      1185.6291     -3209.8128      2.4400922    
  40300000   297.47842     -7072.2868      1141.4599     -3270.6469      9.9442308    
  40350000   300.1295      -7060.0068      1209.6945     -3166.4253     -23.813706    
  40400000   298.22935     -7057.4678      1146.8121     -3243.7606      1.8060377    
  40450000   298.13733     -7050.01        1147.3542     -3236.5836      41.0874      
  40500000   303.31428     -7084.7366      1135.9877     -3236.3821     -25.887523    
  40550000   292.46348     -7073.9947      1216.309      -3242.3514     -8.1169256    
  40600000   304.61231     -7091.6126      1141.9516     -3225.6868     -0.90369868   
  40650000   309.17803     -7070.1862      1157.2041     -3148.1791     -40.954154    
  40700000   298.81668     -7090.7372      1119.4013     -3299.1886      39.165019    
  40750000   300.31882     -7071.3962      1168.1963     -3217.6198     -50.85642     
  40800000   296.30702     -7083.6211      1148.5794     -3285.3369      10.88463     
  40850000   296.84519     -7100.801       1169.1807     -3277.1029     -2.4548583    
  40900000   304.68368     -7112.196       1187.4068     -3200.1767     -15.355192    
  40950000   301.64798     -7104.1311      1098.642      -3308.0231      68.408603    
  41000000   306.92242     -7102.8919      1178.6939     -3179.5657     -17.223716    
  41050000   302.25088     -7079.1889      1165.8226     -3210.5089     -9.8314812    
  41100000   302.59682     -7087.9188      1156.5526     -3225.4153      18.207712    
  41150000   312.40637     -7075.1918      1163.7272     -3117.7924     -3.0377431    
  41200000   302.67114     -7091.8892      1157.0804     -3228.1932     -2.5746454    
  41250000   306.78799     -7075.9135      1106.0966     -3226.3867      7.1263207    
  41300000   304.70144     -7091.0474      1145.2688     -3221.0073      24.479881    
  41350000   305.21113     -7071.1036      1175.7914     -3165.983       33.379513    
  41400000   298.27281     -7099.0735      1132.6841     -3299.1056      51.476539    
  41450000   306.14991     -7115.7857      1173.2369     -3204.8245     -3.6449748    
  41500000   303.16424     -7073.3973      1148.1912     -3214.1811     -1.4980884    
  41550000   306.28017     -7093.9281      1203.1139     -3151.9252     -5.1452624    
  41600000   308.554       -7102.8064      1196.7755     -3146.8083      15.486868    
  41650000   293.11208     -7098.9053      1186.1376     -3291.6334     -5.8853959    
  41700000   290.32324     -7116.2211      1185.3001     -3334.7256      24.747726    
  41750000   299.5827      -7120.5001      1168.083      -3273.4197     -0.13675891   
  41800000   304.22656     -7069.772       1156.3994     -3192.8478     -43.670682    
  41850000   294.33159     -7109.807       1144.5486     -3333.2187     -57.599629    
  41900000   299.31348     -7115.8034      1163.4011     -3275.8124      0.67011156   
  41950000   297.35602     -7097.4073      1198.4261     -3239.8958     -42.296264    
  42000000   300.95852     -7071.8049      1122.5276     -3257.9768      12.277631    
  42050000   299.58396     -7055.6675      1201.9134     -3174.7455      0.88053452   
  42100000   295.7986      -7019.2932      1121.1775     -3252.9574      6.2957544    
  42150000   305.45037     -7065.4144      1156.5248     -3177.4209     -28.152344    
  42200000   299.9836      -7073.6684      1190.5503     -3200.5357      18.433366    
  42250000   300.18093     -7058.6798      1205.0475     -3169.2852     -3.897683     
  42300000   294.51912     -7075.7392      1185.8759     -3256.1467      15.671584    
  42350000   303.53508     -7038.9336      1141.7859     -3182.8064     -2.4853327    
  42400000   299.94491     -7069.3311      1195.5345     -3191.5602      23.033033    
  42450000   303.04852     -7090.6302      1176.6655     -3203.9745     -5.1972907    
  42500000   296.77727     -7086.8432      1173.7705     -3259.1627     -3.6564774    
  42550000   299.22647     -7060.9811      1121.353      -3263.8164     -1.7648539    
  42600000   293.3166      -7051.1598      1133.3622     -3294.8344      31.06729     
  42650000   295.19487     -7099.2194      1189.6622     -3269.7977     -42.937581    
  42700000   293.50596     -7054.3958      1165.5214     -3264.2179      13.259702    
  42750000   295.17343     -7087.0367      1147.5332     -3299.9358     -0.94009003   
  42800000   306.60339     -7047.1126      1159.0602     -3146.2729     -26.868287    
  42850000   299.56867     -7057.7568      1207.8163     -3171.0686     -1.0708727    
  42900000   301.33693     -7090.9974      1144.8715     -3251.4414     -21.380812    
  42950000   299.91064     -7072.5869      1127.3927     -3263.2643      24.268256    
  43000000   301.14935     -7064.2754      1222.7622     -3148.5061     -23.388841    
  43050000   299.71668     -7056.5757      1202.1011     -3174.2791      36.007082    
  43100000   304.5615      -7066.2206      1173.9702     -3168.7304      15.547258    
  43150000   302.44297     -7080.9476      1175.4332     -3200.9393      4.2002503    
  43200000   305.38853     -7075.5175      1181.0853     -3163.5166      9.9180532    
  43250000   305.14148     -7062.2693      1159.7879     -3173.775       49.872501    
  43300000   300.47083     -7105.8382      1194.1028     -3224.796      -27.807202    
  43350000   299.11779     -7108.8104      1146.9882     -3286.9822     -22.093778    
  43400000   303.24872     -7067.9868      1183.6676     -3172.5387      15.492949    
  43450000   297.733       -7060.4431      1158.986      -3239.0006     -5.828181     
  43500000   298.67522     -7056.3823      1131.5013     -3253.9987     -24.247165    
  43550000   304.37589     -7063.298       1147.1941     -3194.2437      9.8107735    
  43600000   298.16657     -7056.2446      1168.9609     -3220.95        30.673715    
  43650000   297.66058     -7056.3274      1124.2197     -3270.2987     -43.979691    
  43700000   303.18833     -7059.0546      1174.7308     -3173.0834     -2.3411467    
  43750000   295.95041     -7044.0436      1131.3268     -3266.2009     -0.17976482   
  43800000   297.41431     -7074.6693      1186.9999     -3228.0628     -28.542793    
  43850000   297.52448     -7072.3418      1136.969      -3274.7809      13.404726    
  43900000   299.81363     -7052.0673      1184.1286     -3186.8763     -31.166258    
  43950000   297.40399     -7033.0122      1111.3195     -3262.1783      4.9572714    
  44000000   297.10112     -7032.752       1193.9111     -3182.0349      33.715908    
  44050000   289.03825     -7072.0712      1177.5412     -3309.8256      8.0699975    
  44100000   307.93622     -7072.428       1123.5322     -3195.1978     -26.097865    
  44150000   296.66885     -7079.144       1123.4269     -3302.7767     -39.149367    
  44200000   309.63657     -7030.8781      1158.6569     -3103.3178     -14.340709    
  44250000   304.55397     -7045.2672      1179.4575     -3142.3571      9.8140989    
  44300000   302.37792     -7049.2194      1208.0983     -3137.1276      2.9230029    
  44350000   296.1231      -7040.7925      1210.856      -3181.8764     -42.288747    
  44400000   299.31754     -7037.9957      1148.092      -3213.2775      14.79612     
  44450000   291.54805     -7043.0403      1139.6945     -3296.1977      36.52679     
  44500000   293.26146     -7011.842       1167.4109     -3221.961       10.950242    
  44550000   294.8299      -7033.9977      1141.178      -3256.3239     -27.009564    
  44600000   308.00174     -7053.484       1160.525      -3138.675      -40.468732    
  44650000   300.14964     -7052.2556      1207.7786     -3160.4098      7.0742778    
  44700000   299.28667     -7015.2565      1128.0799     -3210.8264     -20.711489    
  44750000   306.57403     -7066.2819      1144.3794     -3180.3856     -17.885123    
  44800000   300.59299     -7045.9813      1176.9369     -3181.0126     -24.938092    
  44850000   303.07588     -7037.0483      1184.0611     -3142.7524      8.4579783    
  44900000   303.33919     -7096.3152      1191.874      -3191.8517      30.894132    
  44950000   301.76642     -7046.3727      1142.9791     -3204.8686      27.519769    
  45000000   297.04958     -7063.6503      1145.7314     -3261.5737     -6.0187046    
  45050000   303.88813     -7056.9721      1199.0248     -3140.4488      35.45842     
  45100000   302.42024     -7064.3537      1148.3009     -3211.681      -1.1373654    
  45150000   297.97632     -7081.8375      1138.4139     -3278.7912      39.768819    
  45200000   298.81005     -7038.7027      1169.1498     -3197.4649      32.110228    
  45250000   304.60445     -7055.9778      1145.6079     -3186.4659     -10.793099    
  45300000   299.82707     -7067.2409      1157.0904     -3228.9678     -37.723578    
  45350000   301.64651     -7053.1292      1163.0632     -3192.6131      17.866842    
  45400000   289.96947     -7085.9458      1150.8199     -3342.0942      21.960213    
  45450000   304.0629      -7100.0687      1132.5631     -3248.4444     -28.902236    
  45500000   296.59169     -7073.5298      1093.7315     -3327.5478     -23.161189    
  45550000   309.30702     -7072.2328      1109.4887     -3196.7877      32.054233    
  45600000   298.81042     -7044.6279      1182.8433     -3189.6932      5.1695892    
  45650000   299.82847     -7046.2881      1161.8951     -3203.1979      27.182401    
  45700000   290.23651     -7066.4189      1166.5821     -3304.417       8.4802274    
  45750000   306.67049     -7054.0183      1137.7142     -3173.9248     -21.814377    
  45800000   308.93663     -7056.2785      1149.7209     -3143.9134     -4.3178031    
  45850000   298.88315     -7011.5341      1166.536      -3172.2564     -5.4961548    
  45900000   310.7309      -7033.0854      1147.6884     -3106.7076     -32.2618      
  45950000   301.48633     -7037.6055      1227.057      -3114.528      -1.8162823    
  46000000   295.45279     -7068.0803      1149.4829     -3276.5315      24.336347    
  46050000   282.83828     -7052.1241      1147.7947     -3375.0678      5.8729876    
  46100000   296.05895     -7020.0428      1136.0174     -3236.539       47.024242    
  46150000   287.29385     -7060.8152      1161.8361     -3329.8739     -32.852587    
  46200000   300.91041     -7043.1055      1178.0167     -3174.2186      23.357247    
  46250000   298.46732     -7044.9017      1152.7888     -3223.0898     -11.444191    
  46300000   297.95658     -7071.2601      1154.1171     -3252.6871      36.942846    
  46350000   300.42628     -7062.0913      1129.8483     -3245.7019     -26.068932    
  46400000   298.92548     -7035.1757      1150.6724     -3211.3831     -6.2395697    
  46450000   293.2648      -7054.4774      1125.9375     -3306.0399      30.55417     
  46500000   297.83251     -7027.1729      1197.4397     -3166.3868     -6.6942089    
  46550000   296.33134     -7092.1636      1151.6079     -3290.6333     -22.400777    
  46600000   304.60915     -7032.4794      1143.597      -3164.9362      31.301431    
  46650000   306.79915     -7068.6549      1154.9604     -3170.1646      1.569523     
  46700000   300.33639     -7083.2281      1161.6866     -3235.8043      36.412559    
  46750000   298.40759     -7066.196       1124.332      -3273.375      -0.13046138   
  46800000   292.49736     -7100.8935      1176.4669     -3308.7894     -17.035331    
  46850000   296.331       -7067.9442      1152.2319     -3265.793       1.698899     
  46900000   294.62586     -7053.4915      1164.0443     -3254.776      -33.575493    
  46950000   306.14159     -7044.3203      1189.4651     -3117.2055     -25.346184    
  47000000   296.19267     -7066.016       1159.363      -3257.9708     -21.626074    
  47050000   298.84103     -7039.6107      1188.5656     -3178.6801      15.1694      
  47100000   295.88282     -7033.8784      1127.6563     -3260.3108     -9.2315485    
  47150000   297.46255     -7020.9726      1130.8641     -3230.0704     -6.7678227    
  47200000   306.0017      -7101.5642      1163.4318     -3201.7336     -24.684961    
  47250000   303.33833     -7064.4978      1160.2521     -3191.6638      34.618552    
  47300000   297.93932     -7085.5596      1201.3939     -3219.8641      17.440427    
  47350000   302.69431     -7076.3902      1197.8731     -3171.6943     -14.506208    
  47400000   309.84424     -7046.5028      1081.6019     -3194.1404      11.67146     
  47450000   305.2927      -7085.3153      1168.4121     -3186.8446      6.003584     
  47500000   305.52749     -7047.8943      1221.9837     -3093.7524      6.8186089    
  47550000   300.26445     -7040.4441      1163.0996     -3192.2506      4.2000567    
  47600000   294.54482     -7056.3354      1181.8921     -3240.4969      15.564725    
  47650000   303.40382     -7071.8197      1199.4554     -3159.1969     -22.011344    
  47700000   302.0249      -7057.3294      1131.0713     -3225.4215     -5.2787634    
  47750000   294.3933      -7074.9223      1160.9312     -3281.3996      3.5464232    
  47800000   297.39221     -7031.1502      1184.9113     -3186.8299     -13.286568    
  47850000   296.23555     -7040.625       1177.4575     -3214.1017     -34.391776    
  47900000   297.18931     -7056.6935      1176.9764     -3222.1224      25.520641    
  47950000   297.6358      -7058.382       1154.7956     -3241.999       8.9888758    
  48000000   296.59295     -7071.2928      1106.6318     -3312.3992      5.4197903    
  48050000   298.91733     -7036.8874      1180.7171     -3183.1229     -1.1093781    
  48100000   295.70912     -7058.1653      1177.6365     -3236.1706      18.999782    
  48150000   303.81383     -7052.8423      1153.6085     -3182.3999     -16.105542    
  48200000   293.72172     -7070.4582      1172.9786     -3270.8936     -2.8736962    
  48250000   301.8778      -7061.4418      1147.3164     -3214.6043      29.729592    
  48300000   289.5276      -7036.1494      1112.6083     -3334.4608     -46.395818    
  48350000   298.83747     -7050.8559      1176.7652     -3201.7575     -10.561998    
  48400000   294.41722     -7088.8495      1141.6062     -3314.4378      5.81707      
  48450000   300.07867     -7062.6172      1126.0808     -3253.1039      4.9139047    
  48500000   298.40139     -7057.6169      1199.4485     -3189.7348      33.719918    
  48550000   299.76962     -7062.5167      1185.3128     -3196.535       8.3036233    
  48600000   295.19927     -7081.9864      1118.5778     -3323.6098      11.8951      
  48650000   293.60541     -7023.9983      1172.058      -3226.3945     -1.0825771    
  48700000   300.61531     -7042.7285      1131.9247     -3222.5724     -9.806748     
  48750000   301.69475     -7084.1751      1167.579      -3218.7119      39.095565    
  48800000   297.44481     -7106.4136      1140.4892     -3306.045       34.186522    
  48850000   302.56653     -7060.045       1217.2885     -3137.0765      20.534424    
  48900000   302.50352     -7057.571       1159.5935     -3192.861       3.4540782    
  48950000   304.32033     -7088.6174      1122.0112     -3245.243      -16.032506    
  49000000   299.01576     -7086.3995      1150.5024     -3261.9695     -39.211357    
  49050000   294.91771     -7121.5009      1180.8161     -3303.4039     -26.439278    
  49100000   299.26693     -7119.9949      1122.7829     -3321.0384      3.0062688    
  49150000   296.10802     -7113.9393      1167.0981     -3298.9159     -6.6360237    
  49200000   301.3301      -7098.7069      1120.7755     -3283.308      -28.49257     
  49250000   307.03288     -7097.976       1139.3094     -3213.0465      31.193724    
  49300000   297.014       -7111.3551      1136.236      -3319.0922      31.198664    
  49350000   307.96669     -7094.4616      1164.8363     -3175.6547      14.985616    
  49400000   297.15954     -7115.5856      1160.1914     -3298.0658      4.7337766    
  49450000   299.56201     -7102.3424      1146.5583     -3276.9717     -15.518648    
  49500000   303.12985     -7081.9438      1126.1843     -3245.042       19.761885    
  49550000   298.40287     -7105.904       1144.3229     -3293.1343     -18.773042    
  49600000   304.10139     -7102.4427      1163.0021     -3220.0352      17.987481    
  49650000   299.35095     -7096.2174      1174.4322     -3244.8603     -29.286873    
  49700000   300.89107     -7075.0547      1190.6697     -3193.6876      10.983955    
  49750000   294.79936     -7081.516       1172.048      -3273.2453      6.0204313    
  49800000   302.60592     -7094.8439      1183.6068     -3205.2048      35.696015    
  49850000   300.64134     -7076.2232      1186.7885     -3200.9706      0.55038181   
  49900000   296.70818     -7049.8535      1127.1302     -3269.4311     -1.8484151    
  49950000   296.66081     -7085.1637      1102.1667     -3330.1284     -18.877082    
  50000000   302.43675     -7098.7727      1167.1519     -3227.1013     -9.3963585    
  50010000   292.24442     -7088.8542      1153.5644     -3321.9145      3.6873013    
Loop time of 59324.2 on 18 procs for 50000000 steps with 3001 atoms

Performance: 2184.606 ns/day, 0.011 hours/ns, 842.827 timesteps/s
99.7% CPU use with 18 MPI tasks x 1 OpenMP threads

MPI task timing breakdown:
Section |  min time  |  avg time  |  max time  |%varavg| %total
---------------------------------------------------------------
Pair    | 287.65     | 3966.6     | 18198      |8349.6 |  6.69
Bond    | 164.23     | 429.76     | 1293.3     |1611.9 |  0.72
Neigh   | 25542      | 25635      | 25805      |  58.9 | 43.21
Comm    | 12239      | 28203      | 32385      |3530.7 | 47.54
Output  | 10.199     | 10.25      | 10.282     |   0.7 |  0.02
Modify  | 226.66     | 521.13     | 1541       |1698.5 |  0.88
Other   |            | 559        |            |       |  0.94

Nlocal:        166.722 ave         528 max          48 min
Histogram: 8 0 6 2 0 0 0 0 0 2
Nghost:        4939.22 ave        5607 max        3663 min
Histogram: 2 0 0 0 2 6 0 0 0 8
Neighs:        3577.83 ave       16380 max         166 min
Histogram: 8 4 4 0 0 0 0 0 0 2
FullNghs:         7135 ave       32457 max         396 min
Histogram: 8 2 6 0 0 0 0 0 0 2

Total # of neighbors = 128430
Ave neighs/atom = 42.795735
Ave special neighs/atom = 3.5988004
Neighbor list builds = 5000000
Dangerous builds = 5000000
Total wall time: 16:28:48
