LAMMPS (23 Jun 2022)
OMP_NUM_THREADS environment is not set. Defaulting to 1 thread. (src/src/comm.cpp:98)
  using 1 OpenMP thread(s) per MPI task
Created orthogonal box = (0 0 0) to (150 150 150)
  4 by 4 by 4 MPI processor grid
Read molecule template lig:
  1 molecules
  0 fragments
  5 atoms with max type 2
  4 bonds with max type 1
  3 angles with max type 1
  0 dihedrals with max type 0
  0 impropers with max type 0
Created 1 atoms
  using box units in orthogonal box = (0 0 0) to (150 150 150)
  create_atoms CPU = 0.000 seconds
Created 3000 atoms
  using lattice units in orthogonal box = (0 0 0) to (150 150 150)
  create_atoms CPU = 0.004 seconds
Finding 1-2 1-3 1-4 neighbors ...
  special bond factors lj:    0        1        1       
  special bond factors coul:  0        0        0       
     2 = max # of 1-2 neighbors
     2 = max # of 1-3 neighbors
     2 = max # of 1-4 neighbors
     7 = max # of special neighbors
  special bonds CPU = 0.001 seconds
3000 atoms in group ligands
Generated 0 of 6 mixed pair_coeff terms from geometric mixing rule
Neighbor list info ...
  update every 1 steps, delay 10 steps, check yes
  max neighbors/atom: 2000, page size: 100000
  master list distance cutoff = 60
  ghost atom cutoff = 60
  binsize = 30, bins = 5 5 5
  1 neighbor lists, perpetual/occasional/extra = 1 0 0
  (1) pair lj/expand, perpetual
      attributes: half, newton on
      pair build: half/bin/newton
      stencil: half/bin/3d
      bin: standard
Setting up Verlet run ...
  Unit style    : real
  Current step  : 0
  Time step     : 30
Per MPI rank memory allocation (min/avg/max) = 8.076 | 8.105 | 8.367 Mbytes
   Step          Temp          E_pair         E_mol          TotEng         Press     
         0   0              9.8623636e+13  4.0068356e-25  9.8623636e+13  8.0147754e+12
      5000   143.95451     -774.08992      629.98437      1143.1976      9.0307545    
     10000   141.54814     -1037.6267      646.36922      874.52688     -0.41140406   
Loop time of 3.88428 on 64 procs for 10000 steps with 3001 atoms

Performance: 6673.057 ns/day, 0.004 hours/ns, 2574.482 timesteps/s
99.5% CPU use with 64 MPI tasks x 1 OpenMP threads

MPI task timing breakdown:
Section |  min time  |  avg time  |  max time  |%varavg| %total
---------------------------------------------------------------
Pair    | 0.013919   | 0.048935   | 0.11555    |  10.4 |  1.26
Bond    | 0.010985   | 0.019974   | 0.033592   |   3.8 |  0.51
Neigh   | 0.55152    | 0.5564     | 0.56487    |   0.4 | 14.32
Comm    | 3.0884     | 3.1753     | 3.2297     |   2.0 | 81.75
Output  | 0.0012061  | 0.001218   | 0.0012285  |   0.0 |  0.03
Modify  | 0.022228   | 0.038136   | 0.061986   |   5.1 |  0.98
Other   |            | 0.0443     |            |       |  1.14

Nlocal:        46.8906 ave          99 max          21 min
Histogram: 5 11 15 12 9 6 2 3 0 1
Nghost:        3453.77 ave        3531 max        3385 min
Histogram: 5 8 8 8 8 7 3 8 4 5
Neighs:         319.25 ave        1003 max          65 min
Histogram: 12 19 11 9 5 3 2 1 1 1

Total # of neighbors = 20432
Ave neighs/atom = 6.8083972
Ave special neighs/atom = 3.5988004
Neighbor list builds = 909
Dangerous builds = 0
1 atoms in group nps
600 atoms in group amines
Generated 0 of 6 mixed pair_coeff terms from geometric mixing rule
Neighbor list info ...
  update every 1 steps, delay 10 steps, check yes
  max neighbors/atom: 2000, page size: 100000
  master list distance cutoff = 60
  ghost atom cutoff = 60
  binsize = 30, bins = 5 5 5
  2 neighbor lists, perpetual/occasional/extra = 1 1 0
  (1) pair lj/expand, perpetual
      attributes: half, newton on
      pair build: half/bin/newton
      stencil: half/bin/3d
      bin: standard
  (2) compute coord/atom, occasional
      attributes: full, newton on
      pair build: full/bin
      stencil: full/bin/3d
      bin: standard
Setting up Verlet run ...
  Unit style    : real
  Current step  : 10000
  Time step     : 30
Per MPI rank memory allocation (min/avg/max) = 9.102 | 9.207 | 10.11 Mbytes
   Step          Temp          E_pair         E_mol          TotEng         Press     
     10000   141.54814     -1037.6267      646.36922      874.52688     -0.41140406   
     15000   306.02848     -1344.0345      1292.0377      2684.6415     -1.3823102    
     20000   305.07135     -1595.6165      1296.3471      2428.8098      2.0411676    
     25000   302.4004      -1859.5789      1255.4099      2100.0255      7.1448971    
     30000   302.35291     -2080.1616      1272.3925      1896.0007     -13.378911    
     35000   302.63053     -2237.3895      1294.3633      1763.2262      10.112509    
     40000   293.9831      -2492.4599      1284.9121      1421.3756      13.428369    
     45000   303.28094     -2642.9046      1263.7972      1332.9612      7.7276155    
     50000   302.98797     -2769.2122      1290.367       1230.6035     -7.0086633    
     55000   294.42674     -2914.3329      1250.4405      968.99815      23.580154    
     60000   303.50347     -3055.9143      1261.2586      919.40283     -0.32960197   
     65000   296.07623     -3291.4047      1264.4626      620.69893      14.09401     
     70000   300.94988     -3359.6875      1270.3197      601.85551     -29.602808    
     75000   306.39634     -3421.5235      1279.8079      598.21222      11.105008    
     80000   298.71419     -3477.7983      1213.1829      406.61541      20.928283    
     85000   301.56291     -3504.7809      1236.6939      428.61826      23.288331    
     90000   297.64987     -3614.3163      1260.2859      307.68283      1.7369513    
     95000   301.24935     -3611.2291      1225.6646      308.33674      8.6590507    
    100000   302.95352     -3743.5751      1314.3802      279.94576      19.815197    
    105000   298.90785     -3881.2193      1308.4413      100.18463      12.877377    
    110000   300.2053      -3948.6383      1271.6834      7.6100297      23.519741    
    115000   300.15731     -3959.1195      1232.5485     -42.435276      33.636649    
    120000   302.67074     -4004.8865      1231.8318     -66.44281       7.5899036    
    125000   299.77512     -4070.024       1214.4438     -174.86213      2.7341485    
    130000   302.49537     -4081.1584      1229.5281     -146.58659      20.084629    
    135000   296.22592     -4152.1862      1276.1335     -227.07302     -13.435418    
    140000   296.1358      -4184.2837      1226.0632     -310.04682      18.084083    
    145000   299.73538     -4268.9956      1231.849      -356.7839       21.261758    
    150000   300.77022     -4247.9947      1256.7385     -301.63947      19.07927     
    155000   300.605       -4300.4759      1210.44       -401.89677      8.3313885    
    160000   293.22493     -4375.5217      1273.1411     -480.23708      44.604387    
    165000   296.65182     -4410.1859      1219.5453     -537.8524      -32.21727     
    170000   297.27319     -4409.0382      1284.7649     -465.92853     -16.600775    
    175000   297.36941     -4479.9178      1224.4795     -596.23309     -12.558079    
    180000   303.15601     -4553.3605      1290.3257     -552.08326      22.761264    
    185000   298.79602     -4593.2821      1238.1856     -683.13392     -11.514062    
    190000   303.8143      -4604.0034      1212.7391     -674.42621     -0.82012772   
    195000   296.43716     -4714.2706      1241.0205     -822.38145     -20.385402    
    200000   301.29157     -4744.4163      1226.2151     -823.92238      20.62108     
    205000   297.97297     -4720.3029      1249.4999     -806.20053     -12.655793    
    210000   299.76674     -4786.7155      1236.2226     -869.84973      9.6976395    
    215000   309.47477     -4773.7784      1250.1239     -756.19794     -6.0295808    
    220000   292.52983     -4816.6118      1210.9832     -989.70105      46.588485    
    225000   295.36721     -4839.7544      1240.2786     -958.17522      28.712812    
    230000   304.90762     -4828.2979      1248.4501     -853.23269      15.688989    
    235000   305.41878     -4877.6024      1319.5881     -826.82824      10.936931    
    240000   294.39988     -4928.9622      1290.9191     -1005.3927     -35.68118     
    245000   298.05567     -4933.2199      1251.7759     -1016.102      -9.3085713    
    250000   299.45822     -4996.0118      1239.1163     -1079.0114      18.432591    
    255000   296.5376      -5040.421       1267.5105     -1121.1436     -17.19159     
    260000   300.65836     -5066.7977      1185.1899     -1192.9915      31.354523    
    265000   295.59826     -5087.4316      1258.6272     -1185.4376     -24.024681    
    270000   294.49909     -5079.7931      1266.2815     -1179.974      -2.8494787    
    275000   298.89379     -5097.5028      1224.6408     -1200.0251     -31.634189    
    280000   293.48205     -5083.8812      1264.1678     -1195.2706     -39.281539    
    285000   302.3939      -5086.006       1222.5034     -1159.3663      16.194587    
    290000   297.67145     -5141.0138      1197.0784     -1282.0293     -7.352984     
    295000   305.74556     -5139.8709      1169.9101     -1235.8525      0.84885141   
    300000   302.73301     -5178.4099      1238.2751     -1232.966       22.704965    
    305000   305.84747     -5225.2774      1226.9714     -1263.2864      14.443839    
    310000   292.15815     -5231.7969      1224.777      -1394.416      -12.162098    
    315000   298.97947     -5253.1617      1226.144      -1353.4147     -3.649269     
    320000   295.79597     -5269.3643      1179.172      -1445.0575     -5.8276657    
    325000   307.34621     -5245.882       1192.1702     -1305.2897      8.1754848    
    330000   297.47621     -5290.4         1252.4621     -1377.7776     -1.9302953    
    335000   303.70912     -5274.3903      1220.7623     -1337.7304     -34.056162    
    340000   296.07335     -5314.8773      1247.0852     -1420.1769     -5.0643725    
    345000   303.23031     -5352.1447      1232.3688     -1408.16        11.408869    
    350000   301.98228     -5370.3543      1240.3436     -1429.5553     -5.3849167    
    355000   297.77224     -5375.1574      1223.6344     -1488.7155      49.856506    
    360000   297.21848     -5380.1069      1228.9457     -1493.3057     -25.475976    
    365000   301.37501     -5427.9296      1267.9111     -1464.9935     -0.15143034   
    370000   299.04721     -5440.8064      1286.3898     -1480.2078     -12.759349    
    375000   305.49008     -5453.0567      1210.837      -1510.396       42.373481    
    380000   302.06954     -5483.7311      1216.37       -1566.1253     -8.8908471    
    385000   290.1303      -5478.4224      1233.2788     -1650.6737     -32.003484    
    390000   299.47432     -5525.6138      1221.3454     -1626.2403      8.9312323    
    395000   302.69098     -5482.0585      1242.3944     -1532.8712      30.314143    
    400000   303.47862     -5533.6301      1217.0645     -1602.7292      1.1911031    
    405000   299.9466      -5535.7711      1261.9419     -1591.5777      5.5601977    
    410000   291.70965     -5545.5143      1223.5335     -1713.3877      14.191502    
    415000   297.59182     -5536.8873      1214.8062     -1660.887      -18.831617    
    420000   299.70793     -5590.856       1238.2268     -1672.5119     -4.5270717    
    425000   309.3911      -5610.6524      1239.5563     -1604.3879      7.8967872    
    430000   295.83794     -5582.4498      1222.8976     -1714.042       10.219076    
    435000   295.13759     -5615.3365      1256.4011     -1719.6881     -13.638743    
    440000   301.12703     -5595.6548      1223.7757     -1679.0716      8.0809292    
    445000   304.20637     -5577.089       1181.5015     -1675.2432      21.875806    
    450000   306.00089     -5592.9694      1222.0807     -1634.4971     -1.4440119    
    455000   304.80884     -5618.3413      1206.5891     -1686.0204      3.8847404    
    460000   297.71352     -5578.8523      1244.5063     -1672.0637     -5.4601137    
    465000   301.40889     -5585.2895      1234.4782     -1655.4834     -25.867918    
    470000   299.84004     -5587.6721      1215.9304     -1690.4431     -21.869669    
    475000   292.13337     -5603.5586      1202.1512     -1789.025       17.092118    
    480000   294.3941      -5613.1275      1248.119      -1732.4098     -15.185052    
    485000   300.83055     -5615.8503      1212.3855     -1713.3087      0.34187722   
    490000   300.23211     -5626.1338      1191.8901     -1749.4391     -0.83003866   
    495000   301.2752      -5634.1012      1216.0175     -1723.9512      4.9199386    
    500000   294.61694     -5662.5061      1213.3835     -1814.5313     -2.2933611    
    505000   307.19178     -5660.4105      1217.3603     -1696.0092      14.658895    
    510000   300.62107     -5661.2965      1202.4026     -1770.6109      26.734162    
    515000   304.14653     -5651.2278      1222.32       -1709.0987     -35.645921    
    520000   303.7206      -5623.3697      1207.4766     -1699.8928     -6.1115616    
    525000   300.5865      -5654.8405      1226.1553     -1740.7114     -25.574829    
    530000   304.77037     -5609.5016      1186.2218     -1697.892       10.817426    
    535000   302.57128     -5639.3683      1213.2914     -1720.3544     -48.377832    
    540000   299.93791     -5627.9625      1234.3576     -1711.4311      2.6807432    
    545000   299.98231     -5666.4347      1177.5616     -1806.3024      20.238806    
    550000   303.32782     -5629.6631      1175.7381     -1741.4372     -5.8113997    
    555000   302.874       -5681.7257      1217.7385     -1755.5577      0.90799802   
    560000   301.01237     -5694.2341      1261.3571     -1741.0949      11.163898    
    565000   297.15392     -5697.9085      1192.5884     -1848.0419      28.865641    
    570000   298.85607     -5691.4625      1133.5689     -1885.394       29.460153    
    575000   305.10874     -5713.0012      1198.2985     -1786.2891     -7.56385      
    580000   293.60697     -5686.4304      1206.35       -1854.5206      33.585327    
    585000   304.46915     -5670.9937      1205.8378     -1742.4618      19.941151    
    590000   301.45025     -5716.2988      1203.4454     -1817.1555      32.063225    
    595000   301.0287      -5709.2553      1276.7413     -1740.5858     -9.0779583    
    600000   295.69541     -5721.9022      1196.8021     -1880.8646      18.18533     
    605000   304.62275     -5718.4712      1223.268      -1771.1355      13.943582    
    610000   304.17356     -5759.6648      1215.7168     -1823.8972     -43.353978    
    615000   304.74847     -5768.761       1233.2682     -1810.3009      3.8601584    
    620000   293.14276     -5732.0734      1217.4949     -1893.1698      0.80865474   
    625000   299.4233      -5760.2544      1216.1812     -1866.5013      25.822717    
    630000   302.43516     -5777.1062      1176.2961     -1896.3048      37.554084    
    635000   293.53769     -5799.1439      1246.4667     -1927.737      -14.406838    
    640000   300.36494     -5784.4305      1199.996      -1898.4419     -27.185493    
    645000   293.89051     -5790.0423      1159.4096     -2002.5374     -49.544003    
    650000   302.61356     -5780.7021      1198.175      -1876.4265     -2.2241889    
    655000   306.05386     -5827.0905      1196.8237     -1893.4016      7.9340396    
    660000   290.40132     -5812.1717      1222.6239     -1992.6543      0.90745918   
    665000   301.28414     -5803.635       1255.4702     -1853.9524     -31.335193    
    670000   297.44672     -5824.705       1178.6263     -1986.1822     -13.218657    
    675000   296.29334     -5821.6392      1170.3551     -2001.7017     -44.573344    
    680000   295.58007     -5801.6535      1222.0058     -1936.4435     -6.2108988    
    685000   290.21399     -5830.0246      1226.4441     -2008.3621     -7.1907317    
    690000   299.09523     -5834.4378      1223.0754     -1936.7242      0.51080925   
    695000   307.48452     -5822.2465      1185.2755     -1887.3122     -10.381052    
    700000   297.7564      -5814.2561      1244.0244     -1907.5659      37.162178    
    705000   302.94813     -5867.1447      1193.789      -1964.2632     -12.950371    
    710000   306.24361     -5866.1057      1195.2279     -1932.3158      10.068649    
    715000   301.19393     -5889.4166      1229.6666     -1966.3443      45.627573    
    720000   292.43652     -5868.638       1260.7963     -1992.7486      0.18087507   
    725000   300.32289     -5855.197       1211.9407     -1957.6399      7.3141172    
    730000   302.70833     -5890.0444      1204.7102     -1978.386       45.758261    
    735000   302.06739     -5903.0196      1199.3287     -2002.4744      0.97813086   
    740000   301.93796     -5879.5803      1211.3896     -1968.1316     -0.39541167   
    745000   299.82998     -5874.9846      1183.0424     -2010.7336      40.710872    
    750000   296.88549     -5894.5509      1237.6713     -2002.0019     -12.941436    
    755000   303.16846     -5897.573       1228.1289     -1958.3813      31.984301    
    760000   296.0721      -5878.3272      1213.0771     -2017.646       30.3835      
    765000   301.02439     -5859.7119      1230.502      -1937.3203     -22.670153    
    770000   306.28477     -5890.1562      1277.8877     -1873.3383      36.041585    
    775000   295.18609     -5860.6555      1209.2246     -2011.7499      55.014719    
    780000   302.59241     -5881.9592      1202.2501     -1973.7977      13.846119    
    785000   307.54254     -5876.2649      1234.3749     -1891.7123      26.968376    
    790000   300.10739     -5904.1231      1183.8671     -2036.5666     -7.4593224    
    795000   301.15341     -5940.4594      1211.5367     -2035.8794      16.095197    
    800000   305.15875     -5904.4826      1212.3554     -1963.2664     -41.640104    
    805000   293.77174     -5939.4973      1205.606      -2106.8581      29.164479    
    810000   299.19814     -5963.5371      1219.9886     -2067.99        54.732344    
    815000   297.73942     -5922.2803      1245.617      -2014.1494     -33.921197    
    820000   303.58946     -5918.874       1218.5054     -1985.5411      13.549444    
    825000   306.02336     -5911.1484      1224.218      -1950.338       21.037952    
    830000   299.02254     -5918.3224      1218.5054     -2025.8289     -47.890934    
    835000   300.55409     -5941.4844      1227.958      -2025.8425     -0.38801171   
    840000   301.18585     -5905.4244      1168.4812     -2043.6098     -5.5297406    
    845000   297.31523     -5949.9286      1202.5203     -2088.6876      6.6706387    
    850000   296.74911     -5933.5472      1213.5291     -2066.36        7.7005137    
    855000   303.56793     -5940.4319      1204.2493     -2021.5476     -9.3367184    
    860000   298.75171     -5948.4819      1238.4838     -2038.4319     -10.493743    
    865000   312.17305     -5939.0681      1198.4745     -1949.0079      11.405368    
    870000   300.8792      -5976.3085      1163.3765     -2122.3407     -1.9745638    
    875000   306.41888     -5994.3494      1182.4275     -2071.7924      21.513066    
    880000   297.05656     -5975.0672      1190.4721     -2128.1876      8.4255746    
    885000   300.30371     -6035.9053      1192.42       -2158.0404     -10.393113    
    890000   308.04053     -6022.5916      1206.3297     -2061.6309     -4.5489016    
    895000   300.54687     -6035.5254      1199.4735     -2148.4326     -4.2009939    
    900000   303.0616      -6045.572       1221.4202     -2114.0446     -0.1827468    
    905000   294.31804     -6007.9197      1183.5304     -2192.4708     -9.9144791    
    910000   295.88031     -6026.3733      1197.7462     -2182.7381      22.338525    
    915000   295.28284     -6057.7291      1191.4638     -2225.7192      1.6308818    
    920000   300.97312     -6021.5197      1202.861      -2127.2277      19.249369    
    925000   303.95141     -6077.0773      1208.8194     -2150.1936     -36.546863    
    930000   300.58794     -6106.9245      1152.8033     -2266.1345      21.548778    
    935000   299.83006     -6061.6127      1158.262      -2222.1413     -6.2745702    
    940000   288.62313     -6058.7223      1213.2931     -2264.437      -3.7018735    
    945000   299.13125     -6081.5756      1210.6333     -2195.982       11.908818    
    950000   300.23158     -6067.6186      1188.2795     -2194.5391     -9.8449798    
    955000   305.79916     -6099.036       1172.3683     -2192.0801     -1.4172967    
    960000   299.96251     -6087.0469      1177.5045     -2227.1487      27.573877    
    965000   296.03546     -6125.5115      1164.4307     -2313.8044      21.071353    
    970000   296.87999     -6089.9371      1161.6076     -2273.501      -20.63656     
    975000   305.72018     -6093.0781      1184.4071     -2174.7896     -13.126023    
    980000   306.22323     -6097.8958      1176.9826     -2182.5333      42.800173    
    985000   298.01116     -6090.8308      1201.1584     -2224.7284      2.8811451    
    990000   299.72763     -6094.7808      1189.3533     -2225.1341     -23.716262    
    995000   308.24436     -6128.2983      1181.0525     -2190.7921     -14.779407    
   1000000   296.23452     -6087.6406      1187.7236     -2250.8605     -6.6326454    
   1005000   303.69848     -6134.9999      1242.0483     -2177.1492     -3.2168501    
   1010000   296.57995     -6084.4297      1202.9499     -2229.3343      13.766988    
   1015000   292.26673     -6108.0026      1211.0811     -2283.3467      8.8772184    
   1020000   301.98755     -6155.6128      1188.7701     -2266.3401     -28.055075    
   1025000   303.71926     -6143.3841      1187.3937     -2240.0021     -10.746817    
   1030000   297.74551     -6123.618       1160.3237     -2300.7259      28.96352     
   1035000   301.81415     -6142.6358      1223.7184     -2219.9655     -25.435608    
   1040000   298.00808     -6097.6606      1183.053      -2249.6911     -19.021732    
   1045000   301.33711     -6172.0507      1220.0264     -2257.3383     -23.64174     
   1050000   297.91456     -6134.2742      1211.7192     -2258.4748     -9.7655414    
   1055000   294.6819      -6126.6477      1242.596      -2248.8795      39.004732    
   1060000   300.58663     -6120.4555      1167.7868     -2264.6937      11.751217    
   1065000   292.04742     -6097.4903      1236.4707     -2249.406       29.035418    
   1070000   302.57255     -6143.3123      1172.952      -2264.6264     -25.088674    
   1075000   296.47808     -6171.3067      1197.3249     -2322.7473     -17.877057    
   1080000   295.51219     -6122.4005      1213.6637     -2266.1397     -24.429427    
   1085000   304.24209     -6159.3926      1146.9656     -2291.7634      27.469505    
   1090000   301.14735     -6166.9741      1210.7925     -2263.1925     -0.53683002   
   1095000   300.0161      -6138.9957      1229.0309     -2227.0918      17.437534    
   1100000   295.51934     -6142.6355      1193.3669     -2306.6076      18.768385    
   1105000   299.9048      -6147.9293      1149.3594     -2316.692       17.204723    
   1110000   292.44211     -6152.1569      1180.8276     -2356.1862      9.0364137    
   1115000   299.1336      -6143.6773      1193.01       -2275.6859     -3.1721861    
   1120000   302.04239     -6169.1449      1182.9213     -2285.2305     -12.68392     
   1125000   297.45127     -6170.5922      1190.7289     -2319.9261     -20.248311    
   1130000   303.16655     -6135.6699      1208.7772     -2215.8469     -14.129665    
   1135000   309.44879     -6154.9436      1223.0748     -2164.6446     -2.8572264    
   1140000   301.8722      -6162.561       1181.4613     -2281.6286      8.981479     
   1145000   297.79167     -6120.9662      1168.6537     -2289.3313      46.385752    
   1150000   293.85831     -6123.8512      1199.7843     -2296.2594      44.358387    
   1155000   309.97979     -6170.8189      1239.7616     -2159.0847      45.484752    
   1160000   290.71547     -6173.9262      1198.1339     -2376.0896     -27.269502    
   1165000   293.52524     -6129.2859      1272.4904     -2231.9666      4.1327639    
   1170000   299.12757     -6170.0507      1200.5058     -2294.6175      29.672622    
   1175000   295.38678     -6135.4562      1173.5798     -2320.4008     -34.305501    
   1180000   297.20751     -6153.651       1200.3842     -2295.5094     -11.571672    
   1185000   296.4458      -6176.3031      1178.9805     -2346.3767     -7.4059122    
   1190000   295.78112     -6134.6388      1173.3318     -2316.3049     -7.725658     
   1195000   298.70376     -6123.4088      1253.9833     -2198.288       9.6906794    
   1200000   302.44494     -6139.3238      1210.3569     -2224.3741     -20.009045    
   1205000   300.77497     -6130.7169      1226.9553     -2214.1024      5.2262438    
   1210000   301.22954     -6172.7481      1219.7457     -2259.2783     -34.104428    
   1215000   292.85509     -6150.4375      1212.3684     -2319.2328     -17.163511    
   1220000   301.72485     -6137.0832      1188.6248     -2250.305      -3.3052155    
   1225000   294.78276     -6143.0293      1192.0038     -2314.9512      4.2215345    
   1230000   297.85499     -6159.2148      1185.552      -2310.1154     -34.186035    
   1235000   300.17114     -6158.8023      1244.0013     -2230.5416      34.318173    
   1240000   297.68461     -6190.459       1182.5912     -2345.844       16.028279    
   1245000   299.82589     -6153.3691      1135.3672     -2336.8298     -19.196153    
   1250000   296.22337     -6152.252       1192.5362     -2310.7591      23.314053    
   1255000   301.23048     -6153.3377      1191.3333     -2268.2718     -8.0740514    
   1260000   298.86037     -6171.8471      1245.5284     -2253.7807     -6.0002883    
   1265000   291.57607     -6164.7264      1151.0106     -2406.3172      18.172134    
   1270000   294.66731     -6197.9034      1176.7686     -2386.0929      2.1948265    
   1275000   298.07139     -6194.987       1171.0768     -2358.4276     -32.726195    
   1280000   295.77372     -6176.4063      1168.2654     -2363.205       14.384031    
   1285000   299.6797      -6185.1588      1164.6927     -2340.6013     -14.983515    
   1290000   307.92371     -6186.6785      1171.1858     -2261.9064      50.799138    
   1295000   306.33625     -6183.39        1176.0394     -2267.9601      18.922984    
   1300000   302.78653     -6194.3666      1225.0272     -2261.6921     -38.594624    
   1305000   293.78886     -6190.2763      1211.0707     -2352.0194      5.9255408    
   1310000   296.65502     -6230.128       1175.4932     -2401.818       0.59190982   
   1315000   297.2035      -6177.3585      1148.0741     -2371.5629     -6.6282479    
   1320000   306.94881     -6173.9525      1223.2359     -2205.8484     -14.235535    
   1325000   304.14894     -6189.8185      1228.1334     -2241.8544     -9.6973074    
   1330000   310.78432     -6190.9087      1135.0754     -2276.6662      0.43466272   
   1335000   296.39116     -6164.1631      1166.9278     -2346.7781      9.186017     
   1340000   298.8028      -6199.6559      1244.9897     -2282.6431      35.046577    
   1345000   299.76116     -6171.7484      1153.7591     -2337.3961     -2.5008204    
   1350000   307.35724     -6190.2667      1194.6664     -2247.0797      29.271899    
   1355000   297.44231     -6183.894       1181.1576     -2342.8794      26.825333    
   1360000   297.75847     -6205.7404      1169.3693     -2373.6868      5.2366578    
   1365000   301.93713     -6177.2101      1168.5764     -2308.582       0.56577006   
   1370000   303.46605     -6184.7068      1169.725      -2301.2579      61.358879    
   1375000   300.77176     -6198.8855      1217.6565     -2291.5985      26.300793    
   1380000   300.13234     -6194.7464      1210.2083     -2300.6256      39.401216    
   1385000   291.26712     -6209.8971      1200.6245     -2404.6368      6.9057513    
   1390000   289.65203     -6222.7453      1158.2735     -2474.2787     -29.797976    
   1395000   304.84209     -6211.2139      1211.1282     -2274.0565      16.243869    
   1400000   310.74159     -6226.9296      1217.9527     -2230.1919      13.35785     
   1405000   299.25413     -6206.7284      1216.6527     -2314.0166     -5.0647706    
   1410000   298.42357     -6204.8183      1198.7495     -2337.4368      43.707856    
   1415000   291.86896     -6215.8647      1148.945      -2456.9018     -4.9085598    
   1420000   302.42186     -6226.4207      1178.1256     -2343.9087     -3.7000758    
   1425000   300.3515      -6227.9088      1193.3109     -2348.7256      26.412923    
   1430000   298.02108     -6209.5942      1228.4917     -2316.0698      1.1454425    
   1435000   303.20387     -6227.631       1207.2058     -2309.0458      16.406168    
   1440000   304.53888     -6256.1068      1208.7652     -2324.0239     -33.272283    
   1445000   295.52638     -6239.3836      1237.7808     -2358.8787      4.662461     
   1450000   296.11849     -6237.8686      1173.029      -2416.8207      2.4626183    
   1455000   300.05132     -6226.6241      1199.5844     -2343.8518     -2.9283761    
   1460000   295.02129     -6242.297       1253.799      -2350.2906      15.516904    
   1465000   299.37539     -6262.8298      1205.1123     -2380.574      -6.1034013    
   1470000   295.42081     -6223.4987      1224.6332     -2357.0856     -0.60997207   
   1475000   303.91098     -6238.5047      1176.0517     -2344.7503      10.742272    
   1480000   295.5741      -6268.2138      1153.6023     -2471.4607      28.79245     
   1485000   301.35701     -6273.7126      1147.1624     -2431.6862      24.024314    
   1490000   297.99723     -6251.8653      1230.9943     -2356.0516     -17.340511    
   1495000   301.14256     -6243.4591      1223.2512     -2327.2616      5.7908375    
   1500000   294.19483     -6273.5891      1212.6908     -2430.0816      52.318983    
   1505000   296.03836     -6239.8822      1195.382      -2397.1978      21.910762    
   1510000   298.76697     -6262.5088      1182.0443     -2408.7617     -2.4115512    
   1515000   310.6774      -6228.9282      1226.3211     -2224.3962      15.137161    
   1520000   302.46901     -6236.5267      1187.3237     -2344.395      -23.138569    
   1525000   301.67496     -6286.8358      1197.5118     -2391.6168     -6.5154727    
   1530000   302.4646      -6267.9842      1180.711      -2382.5046      49.91837     
   1535000   306.04914     -6313.0096      1184.407      -2391.7795      4.6920615    
   1540000   299.84405     -6283.0991      1188.2281     -2413.5365     -16.554726    
   1545000   299.50292     -6283.4853      1176.5572     -2428.6442     -17.795552    
   1550000   297.6179      -6260.134       1187.4622     -2411.2445     -15.990923    
   1555000   299.84675     -6297.1857      1248.7116     -2367.1155     -8.4479235    
   1560000   298.21297     -6289.9754      1184.6934     -2438.5333     -31.536312    
   1565000   297.748       -6284.5045      1177.9894     -2443.9245     -26.136115    
   1570000   292.3252      -6292.8754      1255.5006     -2423.2772     -3.1600299    
   1575000   302.5628      -6297.6397      1175.5865     -2416.4064     -14.61209     
   1580000   299.57279     -6279.4459      1182.2412     -2418.296      -4.992868     
   1585000   304.96611     -6266.1271      1184.7999     -2354.189       25.091053    
   1590000   299.91791     -6278.0944      1207.8425     -2388.2569     -18.920445    
   1595000   297.2091      -6313.7064      1194.7362     -2461.1986     -17.689167    
   1600000   292.16931     -6283.7641      1258.8585     -2412.2019      11.718182    
   1605000   300.82127     -6305.1973      1176.7762     -2438.3479      14.465281    
   1610000   309.34039     -6257.6187      1199.0414     -2292.3225      21.609549    
   1615000   297.65881     -6279.1482      1207.5993     -2409.7558      32.442135    
   1620000   305.6908      -6307.0322      1197.3591     -2376.0545     -12.887065    
   1625000   296.35546     -6302.5778      1171.7892     -2480.6506      7.568899     
   1630000   295.54888     -6318.4075      1181.8381     -2493.6441     -15.994332    
   1635000   303.2923      -6332.4959      1191.823      -2428.5027     -1.94967      
   1640000   296.29763     -6329.2914      1202.5078     -2477.1628     -5.5305474    
   1645000   303.56977     -6350.8143      1192.203      -2443.9598      10.762166    
   1650000   291.55751     -6304.4553      1208.0433     -2489.1794     -1.1845986    
   1655000   296.75095     -6322.275       1195.6178     -2472.9826      39.852707    
   1660000   299.80581     -6345.3039      1181.3292     -2482.9821      8.9455548    
   1665000   296.58622     -6363.8534      1173.6552     -2537.9966      12.878875    
   1670000   303.22407     -6333.7333      1183.6482     -2438.5251     -13.014918    
   1675000   301.55185     -6359.7415      1209.6725     -2453.4626     -31.416917    
   1680000   304.36395     -6383.1694      1203.0363     -2458.3797      4.821767     
   1685000   299.63916     -6348.6242      1171.6712     -2497.4507     -2.8373917    
   1690000   303.02189     -6355.3097      1159.6443     -2485.9132     -30.453721    
   1695000   301.67513     -6382.3263      1193.0759     -2491.5416     -11.05643     
   1700000   302.40489     -6354.1196      1226.0348     -2423.8502     -18.596541    
   1705000   297.6166      -6362.4212      1158.9579     -2542.0477      16.665983    
   1710000   299.60283     -6376.7386      1139.0686     -2558.4927      21.250543    
   1715000   302.91965     -6359.483       1151.6278     -2499.0174      28.716281    
   1720000   299.63263     -6330.9957      1197.2409     -2454.3109      7.6284836    
   1725000   295.83661     -6377.1707      1183.8212     -2547.8513      25.176565    
   1730000   297.04114     -6353.3827      1162.7897     -2534.3234      11.005736    
   1735000   301.94146     -6360.8548      1206.6337     -2454.1307      5.0695672    
   1740000   304.99986     -6375.8995      1173.3539     -2475.1057      12.527871    
   1745000   305.04375     -6344.6471      1189.1399     -2427.6748      31.69714     
   1750000   303.43254     -6364.5379      1166.1703     -2484.9433     -2.3715008    
   1755000   300.5161      -6349.5339      1208.5435     -2453.6462     -3.4590607    
   1760000   303.96142     -6366.2746      1206.9006     -2441.2203      13.665       
   1765000   296.19204     -6329.6919      1191.0234     -2489.9919      20.185826    
   1770000   309.27027     -6353.3701      1219.4686     -2368.2736     -1.8304249    
   1775000   300.60301     -6350.5037      1205.5004     -2456.8819      29.840726    
   1780000   306.01544     -6377.4455      1183.6581     -2457.2658      7.0381       
   1785000   293.03712     -6340.8795      1171.6383     -2548.7772     -0.23155076   
   1790000   305.82991     -6357.5535      1193.0747     -2429.6162     -9.5972595    
   1795000   302.94837     -6355.9242      1224.2794     -2422.5501      39.931761    
   1800000   305.87185     -6338.0239      1197.2494     -2405.5368      16.125707    
   1805000   294.65987     -6353.8244      1173.489      -2545.3601     -11.792687    
   1810000   295.66411     -6357.3453      1166.0266     -2547.3631     -9.7288773    
   1815000   298.22066     -6373.9954      1166.636      -2540.542      -2.7835245    
   1820000   291.61005     -6356.9072      1175.6327     -2573.572       11.399647    
   1825000   300.9785      -6354.5283      1254.7609     -2408.2882      11.062243    
   1830000   302.53429     -6333.1864      1200.1892     -2427.6055     -10.92784     
   1835000   295.40429     -6337.7336      1174.2489     -2521.8526     -23.741112    
   1840000   298.078       -6327.6475      1204.7258     -2457.3799      27.974381    
   1845000   304.00242     -6358.4584      1159.6661     -2480.2719     -18.508029    
   1850000   301.53914     -6349.6211      1215.9358     -2437.1926      5.4646749    
   1855000   301.35568     -6354.9886      1201.7639     -2458.3727     -5.6994964    
   1860000   302.58738     -6368.3285      1224.9131     -2437.5489     -13.273379    
   1865000   308.86431     -6383.9457      1157.7811     -2464.1671      11.028151    
   1870000   304.21626     -6348.3891      1160.0231     -2467.9334      2.4214621    
   1875000   307.08171     -6357.6163      1196.2507     -2415.3089      9.1666022    
   1880000   299.18985     -6365.7004      1233.7418     -2456.4743     -18.337718    
   1885000   301.08788     -6377.4284      1170.9736     -2513.9975      18.353671    
   1890000   301.19274     -6368.128       1226.4337     -2448.2992     -1.663284     
   1895000   301.29444     -6378.1748      1234.9087     -2448.9615      10.061718    
   1900000   296.46312     -6363.8364      1178.3362     -2534.3995      1.3676163    
   1905000   301.89953     -6380.3028      1147.6044     -2532.983      -2.75103      
   1910000   300.83269     -6358.7801      1236.1921     -2432.4127     -4.2462362    
   1915000   295.49255     -6396.3411      1207.9464     -2545.9732     -17.533437    
   1920000   304.61162     -6385.3148      1180.7948     -2480.5519     -10.990617    
   1925000   297.65678     -6365.1738      1188.2421     -2515.1568     -31.746983    
   1930000   296.22124     -6357.5603      1137.4393     -2571.1832      14.82706     
   1935000   305.19183     -6378.6085      1200.4248     -2449.027      -11.576638    
   1940000   302.93333     -6369.7056      1177.7201     -2483.0253     -20.274263    
   1945000   302.7141      -6362.6669      1152.1751     -2503.4921      26.239307    
   1950000   294.7911      -6406.687       1232.3281     -2538.21        47.342668    
   1955000   298.34318     -6398.7387      1178.6917     -2552.134      -7.9226904    
   1960000   299.28597     -6407.8611      1169.3226     -2562.1946     -19.490168    
   1965000   301.07599     -6398.3943      1181.0144     -2525.029       22.555823    
   1970000   297.56246     -6382.8787      1153.9245     -2568.0227     -25.861312    
   1975000   301.49427     -6406.7888      1212.7009     -2497.9965     -18.072424    
   1980000   298.16084     -6416.3355      1160.19       -2589.863      -1.6860608    
   1985000   299.21147     -6399.4715      1163.5875     -2560.2063     -40.795298    
   1990000   300.58342     -6404.2703      1197.6515     -2518.6726     -18.782568    
   1995000   301.18835     -6390.6591      1198.7631     -2498.5402     -15.558061    
   2000000   301.06039     -6391.9055      1129.8622     -2569.8319      12.258842    
   2005000   290.23845     -6391.4752      1178.2982     -2617.7398     -9.4566821    
   2010000   292.45998     -6363.1789      1180.9593     -2566.9166      9.447876     
   2015000   292.89736     -6383.3372      1172.1597     -2591.9634     -12.766381    
   2020000   299.45749     -6388.7363      1205.2641     -2505.5945      13.257542    
   2025000   304.15774     -6394.9203      1186.8335     -2488.1774     -2.8151687    
   2030000   297.62932     -6411.4748      1200.6558     -2549.2895      8.2563194    
   2035000   299.6416      -6394.4538      1230.2513     -2484.6784      10.005274    
   2040000   298.66467     -6405.2801      1225.8946     -2508.5977     -7.0916909    
   2045000   301.55902     -6351.7901      1200.3636     -2454.7561     -1.3879697    
   2050000   298.57928     -6350.0591      1199.7416     -2480.2932      6.4264745    
   2055000   304.10157     -6408.4517      1208.7383     -2480.3063      14.913451    
   2060000   307.28423     -6387.7855      1210.9803     -2428.9374     -0.98983078   
   2065000   297.83631     -6400.8891      1220.7048     -2516.8039     -27.589368    
   2070000   294.58155     -6386.5987      1184.8004     -2567.5234      18.33875     
   2075000   295.78425     -6377.6512      1172.0973     -2560.524       14.860268    
   2080000   300.63684     -6390.094       1152.2462     -2549.4239      2.4840511    
   2085000   297.07272     -6403.8624      1177.0841     -2570.2263      11.871823    
   2090000   301.63608     -6373.1147      1182.0659     -2493.6893      29.949736    
   2095000   295.29077     -6388.1269      1171.3664     -2576.1434      27.934738    
   2100000   299.68268     -6354.0004      1165.0461     -2509.0629     -7.8055348    
   2105000   301.11503     -6383.82        1219.4217     -2471.6982      9.1609274    
   2110000   297.14901     -6379.3175      1163.0727     -2559.0105     -29.959828    
   2115000   295.36168     -6388.5874      1161.423      -2585.9132      13.443848    
   2120000   304.9405      -6377.4788      1172.9394     -2477.6303     -2.5871712    
   2125000   303.51774     -6395.3438      1233.4353     -2447.7222      12.50227     
   2130000   296.5274      -6380.9177      1190.9052     -2538.3369      17.192872    
   2135000   303.28126     -6408.3465      1204.3211     -2491.9539     -42.655651    
   2140000   295.01996     -6375.2568      1159.483      -2577.5785     -0.17726064   
   2145000   297.55418     -6387.6291      1182.382      -2544.3896     -10.484555    
   2150000   298.4195      -6374.0934      1199.2091     -2506.2888     -6.2937173    
   2155000   293.20235     -6407.2629      1157.2208     -2628.1005     -43.338452    
   2160000   297.68696     -6391.7252      1185.0824     -2544.598       2.0892472    
   2165000   301.51678     -6381.4633      1208.5243     -2476.6462      10.521583    
   2170000   298.79331     -6422.4647      1184.4915     -2566.0348     -0.46246768   
   2175000   304.6944      -6375.6285      1202.8971     -2448.0229     -11.916401    
   2180000   311.63002     -6402.2531      1235.6032     -2379.9202      11.652636    
   2185000   292.66486     -6374.4364      1227.6        -2529.7013     -43.715091    
   2190000   303.31858     -6401.4236      1208.6312     -2480.3872      12.401472    
   2195000   294.27133     -6380.3394      1141.9334     -2606.9052      36.25675     
   2200000   296.31581     -6382.3132      1159.7092     -2572.8206      15.247088    
   2205000   299.96435     -6384.859       1198.025      -2504.4237      4.8093906    
   2210000   298.20854     -6404.1081      1149.6523     -2587.7468     -29.244362    
   2215000   301.92952     -6380.2529      1187.9325     -2492.3367      18.469543    
   2220000   297.64336     -6408.4563      1213.5773     -2533.2241      17.424566    
   2225000   297.69264     -6383.0902      1225.3606     -2495.634      -31.353633    
   2230000   294.35807     -6389.6046      1198.142      -2559.1862      5.3249531    
   2235000   299.36168     -6406.3614      1161.7085     -2567.6321     -16.224874    
   2240000   295.62821     -6401.5979      1191.6795     -2566.2837     -14.24236     
   2245000   291.37796     -6374.2269      1196.011      -2572.5889      22.577201    
   2250000   299.63894     -6394.7688      1147.5744     -2567.6941     -22.403158    
   2255000   301.72312     -6420.6519      1220.6087     -2501.9054     -19.919408    
   2260000   297.62796     -6417.1815      1173.9555     -2581.7087     -36.307336    
   2265000   294.67418     -6398.2012      1234.377      -2528.7209     -40.220122    
   2270000   296.73746     -6397.5357      1201.3013     -2542.6804      13.710095    
   2275000   305.44392     -6400.4803      1199.7693     -2469.3        -3.7882775    
   2280000   299.82595     -6395.9066      1192.1846     -2522.5494      10.811276    
   2285000   296.14607     -6392.576       1146.89       -2597.4204      9.0030666    
   2290000   302.26673     -6421.2153      1156.8055     -2561.4106      14.535259    
   2295000   295.44125     -6380.6456      1231.6108     -2507.0721      32.508102    
   2300000   296.50061     -6412.7904      1152.4084     -2608.946      -23.332228    
   2305000   291.68299     -6426.5972      1178.8728     -2639.3696      4.6654436    
   2310000   291.55227     -6393.8607      1161.4266     -2625.2483     -14.7425      
   2315000   297.86343     -6416.3596      1187.6172     -2565.1196     -0.55967613   
   2320000   295.96859     -6409.5419      1209.4313     -2553.4322     -4.9191274    
   2325000   300.12534     -6411.159       1193.7007     -2533.6084     -12.809852    
   2330000   292.9548      -6410.1711      1161.2934     -2629.1499     -18.628732    
   2335000   292.53729     -6410.9075      1175.525      -2619.3882      19.800429    
   2340000   303.49419     -6385.6159      1193.5258     -2478.1145     -5.3208735    
   2345000   305.81854     -6387.3465      1199.4263     -2453.1592     -72.923471    
   2350000   304.507       -6433.9058      1192.7873     -2518.086       26.941778    
   2355000   302.23672     -6463.0103      1195.1404     -2565.1392      39.627775    
   2360000   294.98426     -6422.3207      1134.0111     -2650.4335      23.725145    
   2365000   297.28201     -6431.0981      1178.7997     -2593.8747     -8.4594127    
   2370000   291.01997     -6429.8376      1183.6047     -2643.8071      26.587125    
   2375000   310.04367     -6437.7043      1145.5942     -2519.5663     -15.216712    
   2380000   295.39029     -6401.0564      1167.158      -2592.3913     -31.850213    
   2385000   302.62613     -6436.3474      1167.0925     -2563.0418      32.110419    
   2390000   300.02926     -6432.0068      1273.3143     -2475.7017     -2.4338139    
   2395000   296.70803     -6425.0299      1179.8793     -2591.8598      2.2589935    
   2400000   305.74097     -6411.8859      1222.0712     -2455.7474      30.213191    
   2405000   301.50238     -6433.8506      1243.9212     -2493.7653      0.60519038   
   2410000   302.16543     -6440.8234      1180.6918     -2558.0383     -10.903286    
   2415000   293.42148     -6426.3368      1211.9087     -2590.527       7.1033287    
   2420000   295.80677     -6391.8931      1176.4278     -2570.234      -15.10636     
   2425000   304.74365     -6434.6509      1189.4306     -2520.0715      37.906886    
   2430000   299.44563     -6401.0652      1210.6584     -2512.6351     -30.877262    
   2435000   299.97741     -6424.9052      1153.0977     -2589.2806      22.846161    
   2440000   305.61844     -6419.5689      1194.8075     -2491.7898      3.0118328    
   2445000   297.92236     -6442.052       1212.079      -2565.8231     -11.723506    
   2450000   300.9434      -6470.3194      1158.3828     -2620.7713      23.984419    
   2455000   302.44435     -6409.1147      1165.3417     -2539.1855      3.4119502    
   2460000   290.80503     -6460.7311      1239.3858     -2620.8417      3.8700197    
   2465000   292.67198     -6433.7846      1188.1908     -2628.395       27.395349    
   2470000   299.60896     -6473.6961      1173.3363     -2621.1275      20.076785    
   2475000   301.65495     -6426.4783      1189.3824     -2539.5676     -8.4383303    
   2480000   303.45654     -6419.7175      1164.6822     -2541.3963     -28.043165    
   2485000   296.39918     -6479.6844      1179.6178     -2649.5376      34.069197    
   2490000   299.58782     -6423.4014      1226.8338     -2517.5245      1.1406661    
   2495000   302.41825     -6463.3015      1195.8593     -2563.0881     -12.501401    
   2500000   305.82173     -6397.8493      1185.1247     -2477.9352     -14.293329    
   2505000   296.90826     -6465.3461      1229.5771     -2580.6877     -46.68328     
   2510000   299.44735     -6462.191       1170.5513     -2613.8527      24.787282    
   2515000   300.84015     -6438.9759      1208.5557     -2540.1782     -13.729558    
   2520000   304.89974     -6486.126       1195.3404     -2564.2409     -9.3633373    
   2525000   291.90277     -6450.9461      1139.059      -2701.567      -23.020913    
   2530000   302.6322      -6453.46        1214.7803     -2532.4124     -2.7357757    
   2535000   303.33652     -6416.783       1237.3701     -2466.8473      2.7953131    
   2540000   297.68766     -6415.8508      1182.8008     -2570.9988     -11.119422    
   2545000   297.7345      -6440.9345      1169.7472     -2608.7174     -16.418674    
   2550000   297.26149     -6449.4267      1152.2092     -2638.9774      15.473827    
   2555000   296.63378     -6449.9594      1150.5253     -2646.8073     -13.538751    
   2560000   299.81899     -6466.4073      1178.9371     -2606.3598      17.321105    
   2565000   294.66193     -6498.3438      1176.341      -2687.0091     -14.583258    
   2570000   297.61056     -6472.2615      1182.2974     -2628.6024     -12.829106    
   2575000   299.15692     -6480.0879      1188.5195     -2616.3785      26.983145    
   2580000   297.32742     -6482.3692      1234.8487     -2588.6908     -17.214101    
   2585000   298.51706     -6452.1013      1190.2827     -2592.3506     -20.552282    
   2590000   307.66445     -6471.3054      1212.5806     -2507.4569     -21.595312    
   2595000   293.07192     -6450.2558      1143.8034     -2685.6772      0.082849451  
   2600000   300.04432     -6406.8261      1160.3703     -2563.3303      9.4165023    
   2605000   303.31684     -6449.5164      1194.4613     -2542.6654     -24.970607    
   2610000   302.8875      -6454.7171      1219.3987     -2526.7681     -16.751534    
   2615000   304.39181     -6474.222       1162.2555     -2589.964      -2.3705727    
   2620000   293.31944     -6446.1847      1211.8374     -2611.3587     -16.627693    
   2625000   310.15011     -6479.9939      1159.1121     -2547.3861     -21.432615    
   2630000   302.34805     -6449.5495      1198.5869     -2547.2362      6.8211625    
   2635000   296.31893     -6488.4142      1182.7792     -2655.8236      7.9071513    
   2640000   297.94833     -6510.1013      1183.8569     -2661.8622     -2.0943161    
   2645000   296.23137     -6482.241       1193.3786     -2639.8341      24.852339    
   2650000   294.91384     -6459.6269      1191.823      -2630.5575     -2.4170928    
   2655000   300.98713     -6485.5165      1123.2287     -2670.7314      5.274716     
   2660000   298.18289     -6468.9793      1166.9069     -2635.5927      22.75776     
   2665000   300.78684     -6451.3077      1181.8217     -2579.7206     -36.901863    
   2670000   300.06892     -6488.9972      1148.3671     -2657.2848      15.464965    
   2675000   303.55035     -6490.3099      1162.9053     -2612.9268      7.0300719    
   2680000   295.51349     -6488.7665      1144.242      -2701.9157      32.759982    
   2685000   295.88605     -6477.2264      1201.2576     -2630.0284     -4.3577665    
   2690000   294.8907      -6481.1644      1187.0768     -2657.048      -9.207692     
   2695000   302.7082      -6456.0434      1182.7607     -2566.3357     -15.139298    
   2700000   305.63805     -6502.2344      1229.8471     -2539.2404     -18.467563    
   2705000   299.15618     -6460.0479      1174.6679     -2610.1967      28.10477     
   2710000   297.05673     -6463.2411      1181.8917     -2624.9403     -39.044222    
   2715000   302.2361      -6456.039       1128.5157     -2624.7981      0.30232559   
   2720000   307.93948     -6474.7481      1152.617      -2568.4038     -36.381889    
   2725000   298.501       -6491.8488      1171.5482     -2650.9763      28.801155    
   2730000   301.12566     -6492.2597      1162.617      -2636.8476      7.5591489    
   2735000   300.68573     -6498.2791      1186.1055     -2623.3124     -15.970903    
   2740000   301.36213     -6503.2436      1144.8497     -2663.4842     -0.16792314   
   2745000   296.58191     -6489.6387      1194.7374     -2642.7383     -15.613149    
   2750000   290.7596      -6485.1245      1198.4008     -2686.6264      28.712853    
   2755000   298.60348     -6454.2378      1199.5215     -2584.4755     -2.7530162    
   2760000   304.09602     -6513.8176      1177.3197     -2617.1406      12.117519    
   2765000   296.64793     -6511.5         1190.7677     -2667.9788     -20.479125    
   2770000   298.99887     -6496.2812      1146.3918     -2676.1129     -2.9188343    
   2775000   299.84394     -6472.5666      1148.7802     -2642.4529      8.3847682    
   2780000   298.06279     -6498.8308      1226.7083     -2606.7169      17.539814    
   2785000   303.3643      -6528.8095      1203.6777     -2612.3178     -34.587263    
   2790000   310.29612     -6515.0874      1167.1628     -2573.1233      3.2245998    
   2795000   301.14034     -6524.1997      1170.7355     -2660.5378     -7.1226513    
   2800000   290.96033     -6496.5388      1138.7672     -2755.8792     -8.3710037    
   2805000   289.9694      -6535.8295      1155.1968     -2787.6016      5.1717632    
   2810000   307.52737     -6529.9277      1201.8294     -2578.0563      40.2838      
   2815000   305.08567     -6521.419       1200.7492     -2592.4625      9.8332932    
   2820000   294.38914     -6513.0517      1208.6378     -2671.8595      5.7196798    
   2825000   305.60519     -6534.9579      1182.423      -2619.6818      39.612722    
   2830000   298.47155     -6504.0438      1177.1003     -2657.8825     -28.336687    
   2835000   293.12376     -6510.6189      1135.0459     -2754.3342     -1.2542881    
   2840000   299.07021     -6489.0494      1136.5203     -2678.1146      27.361634    
   2845000   300.56945     -6513.3917      1222.1701     -2603.4003      15.781872    
   2850000   296.76979     -6519.0393      1193.0717     -2672.1246     -25.281917    
   2855000   298.54652     -6517.6843      1172.2979     -2675.6549      9.9643483    
   2860000   294.24954     -6534.8596      1137.9988     -2765.5548     -2.6433533    
   2865000   297.05026     -6520.9473      1174.6734     -2689.9227     -2.4712287    
   2870000   299.80503     -6507.0884      1188.7683     -2637.3345      37.166328    
   2875000   298.21465     -6522.6577      1228.6456     -2627.2484     -15.855776    
   2880000   298.47872     -6558.6526      1231.8774     -2657.6501     -20.988928    
   2885000   294.92944     -6528.3756      1149.2704     -2741.7193     -3.2984234    
   2890000   296.21162     -6567.3471      1214.7735     -2703.7219      12.629697    
   2895000   296.93818     -6547.8859      1189.1957     -2703.3412     -26.432801    
   2900000   299.96592     -6556.5779      1159.5645     -2714.5891     -32.445631    
   2905000   297.66498     -6549.8142      1187.5577     -2700.4082     -14.555694    
   2910000   296.58204     -6571.1424      1195.0839     -2723.8944     -24.868241    
   2915000   300.43056     -6578.0834      1150.2199     -2741.2843     -17.697502    
   2920000   301.83755     -6527.0742      1216.7764     -2611.1366     -27.033457    
   2925000   303.38757     -6542.0284      1186.0424     -2642.9638     -35.568252    
   2930000   308.65712     -6530.7963      1138.5963     -2632.0553     -19.960344    
   2935000   308.85243     -6559.4112      1196.9998     -2600.5201      33.826753    
   2940000   302.0453      -6549.9281      1196.8663     -2652.0427      2.1005512    
   2945000   304.92574     -6579.4667      1163.6646     -2689.025       1.6445868    
   2950000   299.35222     -6580.2578      1165.1866     -2738.1349      28.099372    
   2955000   297.93839     -6562.9919      1190.819      -2707.8797     -7.0598968    
   2960000   303.66912     -6548.8968      1193.9417     -2639.4152      3.0116172    
   2965000   298.95668     -6563.2697      1196.1968     -2693.6737     -0.81400843   
   2970000   296.69816     -6561.4276      1164.934      -2743.291       0.44091059   
   2975000   299.46246     -6582.587       1182.0073     -2722.6575      13.133629    
   2980000   298.52794     -6566.1226      1229.6938     -2666.8636     -16.130359    
   2985000   301.56555     -6550.3437      1146.8214     -2706.7934      6.7307581    
   2990000   305.89565     -6595.9938      1231.3779     -2629.1654     -2.762332     
   2995000   297.05657     -6549.721       1198.5042     -2694.8092      11.933264    
   3000000   303.45912     -6581.0972      1175.2776     -2692.1576      20.764762    
   3005000   293.13486     -6580.9808      1188.4196     -2771.2233     -2.7383593    
   3010000   295.32478     -6543.5674      1169.662      -2732.9842     -43.892551    
   3015000   297.36862     -6568.5231      1188.8696     -2720.4553      6.0426529    
   3020000   298.88126     -6568.8975      1165.2771     -2730.8957     -12.80819     
   3025000   295.2442      -6548.825       1166.0954     -2742.529       18.006953    
   3030000   295.76477     -6542.0478      1173.9252     -2723.2668      37.94769     
   3035000   297.25711     -6568.95        1141.1007     -2769.6483     -24.938965    
   3040000   299.95556     -6595.2586      1184.5409     -2728.386      -4.0795676    
   3045000   300.02398     -6553.81        1139.423      -2731.4436     -9.5884613    
   3050000   305.63688     -6542.6437      1204.3927     -2605.1146      10.237508    
   3055000   295.93146     -6560.836       1185.3267     -2729.1629     -10.557416    
   3060000   302.92067     -6568.6336      1146.0333     -2713.7533      5.8710493    
   3065000   299.33523     -6555.3105      1174.3616     -2704.1645     -20.392649    
   3070000   300.89794     -6557.5038      1175.6764     -2691.0687      31.848601    
   3075000   305.01804     -6558.6373      1202.5773     -2628.4575     -10.322522    
   3080000   299.86626     -6559.9735      1235.2141     -2643.2263      0.015515836  
   3085000   298.48183     -6546.7608      1149.6285     -2727.9794     -23.446798    
   3090000   300.31319     -6564.6336      1145.1987     -2733.9052     -4.7077518    
   3095000   302.38354     -6542.6334      1179.152      -2659.4377     -2.7939388    
   3100000   302.41068     -6552.1664      1211.6778     -2636.2022      38.156262    
   3105000   297.32334     -6567.8117      1157.299      -2751.7195      17.118888    
   3110000   309.24016     -6542.8735      1193.8669     -2583.648      -3.4799108    
   3115000   297.34705     -6556.0321      1182.7117     -2714.3152     -31.216371    
   3120000   301.22817     -6565.6762      1139.3088     -2732.6555      30.407256    
   3125000   296.0731      -6569.4017      1173.6561     -2748.1326      23.559941    
   3130000   303.15827     -6536.206       1164.3636     -2660.8707      19.835615    
   3135000   306.01525     -6568.6787      1152.8031     -2679.3556     -36.045763    
   3140000   308.03794     -6534.1124      1150.0061     -2629.4985      15.30281     
   3145000   298.88884     -6549.5696      1205.0061     -2671.771      -0.46599906   
   3150000   297.88641     -6525.8254      1174.3482     -2687.6488      17.173989    
   3155000   296.29573     -6534.7181      1197.468      -2687.6463      4.0799561    
   3160000   301.73747     -6572.7034      1159.8285     -2714.6085     -7.0021805    
   3165000   300.08325     -6557.5979      1206.2765     -2667.8479      23.450215    
   3170000   294.57108     -6538.7627      1164.2798     -2740.3016      13.339122    
   3175000   296.20376     -6588.8739      1191.4793     -2748.6131      42.376874    
   3180000   305.54458     -6587.0463      1121.9317     -2732.8035     -5.2177751    
   3185000   302.74337     -6580.6932      1164.9391     -2708.4926     -1.339237     
   3190000   308.2574      -6596.2181      1208.6116     -2631.0363      25.145448    
   3195000   296.2742      -6619.6428      1184.1345     -2786.0969      9.9419127    
   3200000   305.74193     -6596.5776      1164.9371     -2697.5646      4.3097736    
   3205000   300.62795     -6589.1337      1212.7681     -2688.0211     -5.045536     
   3210000   303.95517     -6588.3701      1174.9484     -2695.3239      18.176772    
   3215000   301.36297     -6568.0558      1186.7373     -2686.4012     -14.207069    
   3220000   301.61697     -6598.9042      1112.0091     -2789.7063     -28.752167    
   3225000   300.51993     -6589.2907      1197.2997     -2704.6125      3.1980943    
   3230000   304.3556      -6605.105       1157.7271     -2725.6992      1.3032537    
   3235000   310.51677     -6617.538       1175.0093     -2665.7541      15.293766    
   3240000   302.29117     -6582.4317      1139.0893     -2740.1248      13.649934    
   3245000   292.92977     -6607.649       1142.5933     -2845.5518      33.054367    
   3250000   299.58351     -6577.8398      1200.441      -2698.3943     -2.9688386    
   3255000   296.47487     -6611.6226      1156.3172     -2804.0996     -2.2022109    
   3260000   307.66199     -6636.5818      1123.144      -2762.1919     -5.4370458    
   3265000   303.34116     -6584.7194      1209.7828     -2662.3294      0.44362017   
   3270000   300.54406     -6609.5043      1171.8992     -2750.0108     -12.891344    
   3275000   304.27492     -6593.3821      1136.8857     -2735.5392     -35.60879     
   3280000   299.27858     -6624.0852      1183.8255     -2763.9819      26.281328    
   3285000   306.3149      -6623.2714      1194.4116     -2689.6602     -5.2839775    
   3290000   298.52696     -6630.8923      1180.0036     -2781.3322      35.693616    
   3295000   303.6279      -6648.1255      1184.381      -2748.5732      41.966309    
   3300000   302.60022     -6655.1694      1148.5056     -2800.6824     -0.24026764   
   3305000   298.63366     -6651.6611      1183.9914     -2797.159      -25.862785    
   3310000   300.81651     -6656.8772      1177.671      -2789.1756     -6.938148     
   3315000   305.76607     -6622.8304      1194.1365     -2694.4023      10.751094    
   3320000   300.23051     -6605.2867      1141.8234     -2778.673       1.9133035    
   3325000   293.6975      -6655.8972      1164.885      -2864.6428     -28.170358    
   3330000   296.04948     -6635.0216      1173.9288     -2813.691       29.744498    
   3335000   306.29488     -6627.1641      1205.6245     -2682.5191     -8.1453537    
   3340000   302.24797     -6628.0417      1157.0972     -2768.1132     -22.7316      
   3345000   298.47948     -6628.9506      1179.9973     -2779.8215      10.399445    
   3350000   302.70225     -6637.1398      1160.2962     -2769.9499     -27.667213    
   3355000   297.10117     -6657.1642      1201.0858     -2799.2719     -14.191157    
   3360000   305.61169     -6640.9844      1115.2047     -2792.8685      14.568274    
   3365000   300.70915     -6645.3414      1199.7343     -2756.5365      40.398744    
   3370000   299.50525     -6634.6219      1192.0317     -2764.2854     -12.065901    
   3375000   300.51979     -6647.886       1184.4272     -2776.0815      26.139222    
   3380000   298.36525     -6637.7921      1171.2399     -2798.4418      3.0883792    
   3385000   303.05379     -6641.5403      1109.6095     -2821.8934     -3.8349428    
   3390000   305.77136     -6632.7661      1133.7804     -2764.6466     -12.847099    
   3395000   301.85173     -6662.8217      1148.3393     -2815.1944     -12.744888    
   3400000   303.76084     -6638.7234      1191.5915     -2730.7718     -33.668034    
   3405000   298.99        -6642.073       1169.9645     -2798.4113      7.4316939    
   3410000   312.78473     -6674.7772      1211.2584     -2666.4632     -20.238531    
   3415000   298.48484     -6655.9015      1132.9442     -2853.7775      14.434244    
   3420000   302.7032      -6668.8242      1181.7283     -2780.1937      4.9846914    
   3425000   305.65623     -6667.3409      1186.1584     -2747.873      -0.16300792   
   3430000   300.40693     -6635.2519      1215.9276     -2732.9563      40.650603    
   3435000   300.74638     -6687.1442      1129.6506     -2868.0901      20.576218    
   3440000   292.79873     -6669.0307      1178.2354     -2872.4632      31.408026    
   3445000   305.49787     -6661.4475      1234.879      -2694.6751      1.6796377    
   3450000   300.42728     -6639.8171      1259.7452     -2693.522       30.905793    
   3455000   302.71981     -6676.9518      1135.16       -2834.741       4.4328529    
   3460000   297.22114     -6660.3032      1164.3878     -2838.0361     -19.046669    
   3465000   301.24681     -6641.8246      1184.1893     -2763.7568      0.28758066   
   3470000   307.84289     -6669.7025      1179.2345     -2737.6045      26.810102    
   3475000   300.96055     -6683.3074      1126.8428     -2865.1459      5.0502895    
   3480000   293.9325      -6663.0008      1192.7238     -2841.8062      18.590683    
   3485000   298.88454     -6672.0777      1178.3724     -2820.9511     -12.854951    
   3490000   303.05747     -6654.2659      1211.0708     -2733.1247     -3.6753704    
   3495000   300.41148     -6673.1858      1165.9739     -2820.8031     -9.6572586    
   3500000   301.97872     -6679.7065      1177.0072     -2802.2757     -15.01671     
   3505000   308.30735     -6682.2913      1142.6315     -2782.6429     -12.369574    
   3510000   300.66617     -6658.021       1197.3884     -2771.9463      9.8413898    
   3515000   299.80472     -6712.8635      1173.5        -2858.3807     -5.1186017    
   3520000   303.98125     -6675.3993      1201.2757     -2755.7926      12.86936     
   3525000   298.57531     -6668.6551      1193.0384     -2805.6278     -11.790592    
   3530000   298.01034     -6714.5113      1209.3464     -2840.2283     -1.3449666    
   3535000   304.83135     -6678.826       1138.1956     -2814.6973     -31.523645    
   3540000   298.45324     -6663.1559      1174.5496     -2819.7091      7.0905424    
   3545000   290.60275     -6667.2122      1224.2982     -2844.2192     -0.60338856   
   3550000   301.18727     -6671.8824      1137.3388     -2841.1974      10.480662    
   3555000   296.66666     -6667.3948      1121.4198     -2893.054      -22.734085    
   3560000   298.49932     -6697.4519      1161.5075     -2866.6351      0.62429999   
   3565000   303.57414     -6654.3514      1174.0521     -2765.6088      6.7545956    
   3570000   299.31463     -6683.2977      1188.6986     -2817.999       5.8723566    
   3575000   295.65963     -6685.5915      1198.7819     -2842.894      -21.912319    
   3580000   297.11321     -6665.4432      1183.9354     -2824.5937     -47.684364    
   3585000   302.0076      -6661.6656      1173.3373     -2787.6465     -1.2872996    
   3590000   303.25505     -6714.3633      1206.839      -2795.6871     -19.930008    
   3595000   300.58704     -6708.9173      1161.9385     -2859.0001     -27.75939     
   3600000   302.87175     -6660.934       1172.954      -2779.5705      8.8611144    
   3605000   314.29493     -6680.975       1153.9879     -2716.4266     -0.81456317   
   3610000   298.78548     -6692.6744      1170.8464     -2849.9597      17.983402    
   3615000   299.70961     -6664.2747      1164.6729     -2819.4695     -15.541094    
   3620000   296.94307     -6661.7969      1194.6854     -2811.7189      9.6384739    
   3625000   298.57152     -6648.8182      1196.8349     -2782.0282      19.142297    
   3630000   300.76561     -6720.7928      1193.1427     -2838.0746     -16.511258    
   3635000   300.88483     -6664.4521      1210.1547     -2763.6559      25.240038    
   3640000   303.51381     -6683.2741      1183.8086     -2785.3145      24.940801    
   3645000   301.44539     -6689.0652      1211.7433     -2781.6675      11.187836    
   3650000   298.42167     -6702.6129      1168.3538     -2865.6443      58.171333    
   3655000   292.79155     -6650.8754      1177.9058     -2854.7016     -6.4219728    
   3660000   308.34266     -6691.1382      1149.4481     -2784.3574      4.4274593    
   3665000   293.68724     -6694.1233      1184.7826     -2883.0631     -19.849965    
   3670000   303.61872     -6698.4532      1180.7256     -2802.6385      13.858299    
   3675000   297.21309     -6694.4525      1181.6859     -2854.9594      22.059316    
   3680000   291.69604     -6673.2137      1249.389      -2815.3532     -6.6132616    
   3685000   298.6544      -6687.2503      1203.0403     -2813.5138      8.5371415    
   3690000   299.27791     -6657.0013      1212.7084     -2768.0211     -23.070981    
   3695000   292.72016     -6657.6931      1182.4045     -2857.6591     -7.2643437    
   3700000   299.66622     -6685.926       1169.2297     -2836.952       21.339219    
   3705000   302.00833     -6670.2061      1155.101      -2814.4167     -54.0088      
   3710000   295.87594     -6695.3569      1165.8501     -2883.6569     -18.907367    
   3715000   296.91418     -6684.8282      1161.9929     -2867.7009     -28.475779    
   3720000   298.69159     -6659.3474      1159.7906     -2828.5281      22.122066    
   3725000   301.60153     -6686.7227      1182.4506     -2807.2214      1.7854288    
   3730000   301.42384     -6719.4379      1186.8222     -2837.1541     -6.6703167    
   3735000   304.03834     -6665.7105      1181.2088     -2765.6601      16.550224    
   3740000   298.15801     -6701.9399      1148.9565     -2886.7262     -2.2892319    
   3745000   296.17274     -6701.0776      1139.6647     -2912.9089     -33.749921    
   3750000   296.20916     -6661.9673      1228.7697     -2784.3679      46.180024    
   3755000   302.61891     -6706.1137      1183.7349     -2816.2304     -34.272537    
   3760000   298.19649     -6683.1869      1172.4597     -2844.1259      31.439169    
   3765000   295.6295      -6712.5629      1221.8492     -2847.0676     -0.14889118   
   3770000   294.89097     -6634.9764      1223.4385     -2774.496       10.426027    
   3775000   296.39911     -6655.5015      1175.1        -2829.8732      20.418644    
   3780000   308.36392     -6667.0397      1161.7131     -2747.8037     -4.7647997    
   3785000   295.47392     -6685.2325      1133.4796     -2909.498       36.721711    
   3790000   302.25042     -6681.3279      1145.4945     -2832.9802     -16.759711    
   3795000   296.57687     -6705.7271      1155.9236     -2897.6855     -19.913038    
   3800000   299.71576     -6698.3371      1187.1542     -2830.9957      6.4329331    
   3805000   295.72872     -6710.2738      1234.0832     -2831.6571     -24.093478    
   3810000   304.62923     -6726.3323      1168.8766     -2833.3301     -16.515033    
   3815000   298.83416     -6678.9802      1195.9662     -2810.7103     -11.507616    
   3820000   294.41037     -6709.207       1160.0904     -2916.3725      1.6280591    
   3825000   302.19158     -6705.5162      1152.2387     -2850.9505      8.111099     
   3830000   305.53803     -6723.1492      1165.3009     -2825.5959     -17.068645    
   3835000   305.17693     -6694.3028      1185.3076     -2779.9718     -17.685689    
   3840000   300.01644     -6693.6521      1172.2257     -2838.5503     -24.512361    
   3845000   296.97237     -6677.6383      1160.9378     -2861.0458     -30.624741    
   3850000   306.58795     -6685.0896      1185.7067     -2757.7415      12.56848     
   3855000   308.93517     -6685.208       1191.0537     -2731.5231      15.4623      
   3860000   304.47411     -6700.7679      1156.3526     -2821.6768     -9.6833879    
   3865000   309.0827      -6680.3272      1173.0668     -2743.3099      0.76534382   
   3870000   298.38091     -6712.5843      1194.6302     -2849.7036      9.5945842    
   3875000   306.61631     -6695.0882      1162.739      -2790.4543     -21.681721    
   3880000   298.86546     -6691.3595      1164.6981     -2854.0779      48.765273    
   3885000   300.78766     -6673.4984      1197.3815     -2786.3443     -14.061856    
   3890000   300.72741     -6658.1591      1162.7109     -2806.2144     -2.9756021    
   3895000   302.94481     -6681.7168      1196.7353     -2775.9187      36.045029    
   3900000   304.69252     -6706.9594      1178.4615     -2803.8063     -13.950197    
   3905000   308.09013     -6718.7168      1165.1568     -2798.4856      7.2516945    
   3910000   301.28612     -6681.7026      1139.7162     -2847.7564      16.484458    
   3915000   299.33473     -6705.9879      1165.356      -2863.852      -20.935539    
   3920000   292.2699      -6714.8952      1171.763      -2929.529      -14.635154    
   3925000   294.60384     -6666.5344      1167.1117     -2864.9484      13.053925    
   3930000   296.78142     -6698.1639      1142.4659     -2901.751      -15.232921    
   3935000   301.41524     -6684.9977      1163.4805     -2826.1324      7.7998407    
   3940000   298.91262     -6684.5914      1225.9382     -2785.648       8.1716119    
   3945000   301.8584      -6711.5827      1197.8875     -2814.3475      5.509747     
   3950000   305.76249     -6685.7752      1184.516      -2766.9995     -11.538155    
   3955000   301.26459     -6683.0576      1214.593      -2774.4271      19.440176    
   3960000   296.37478     -6675.3961      1136.2315     -2888.8538     -20.916434    
   3965000   304.42194     -6720.704       1203.9228     -2794.5093      17.713521    
   3970000   297.69909     -6697.0231      1170.6551     -2864.2147     -6.1275205    
   3975000   298.37618     -6674.6319      1195.9778     -2810.446       32.694683    
   3980000   299.72314     -6653.7317      1151.2952     -2822.1832     -16.52583     
   3985000   298.561       -6717.0767      1238.6811     -2808.5347      25.935613    
   3990000   298.32891     -6683.3629      1211.1006     -2804.4769      9.9119591    
   3995000   303.58708     -6680.0011      1215.5228     -2749.672       11.353265    
   4000000   304.93056     -6686.4946      1178.2756     -2781.3988      24.835089    
   4005000   298.86904     -6694.7691      1216.9081     -2805.2455     -24.78744     
   4010000   301.11186     -6717.2018      1160.1643     -2864.3657     -11.133549    
   4015000   298.36752     -6662.5328      1156.0209     -2838.3812      26.595112    
   4020000   287.98315     -6705.018       1181.2362     -2948.5126     -31.043509    
   4025000   303.01186     -6688.221       1189.3602     -2789.1985      14.328391    
   4030000   298.24773     -6693.9475      1169.0258     -2857.8623      14.431636    
   4035000   295.44753     -6673.3743      1138.2289     -2893.1265      15.792806    
   4040000   294.01708     -6692.4502      1186.8221     -2876.401       28.391231    
   4045000   295.12125     -6687.9832      1187.5552     -2861.3268     -8.6564495    
   4050000   298.71423     -6697.9892      1119.2591     -2907.4989     -12.955937    
   4055000   295.24441     -6706.4038      1176.055      -2890.1463      16.219686    
   4060000   294.99795     -6707.5296      1166.6017     -2902.9293      27.133844    
   4065000   302.19343     -6712.4231      1189.4867     -2820.5927     -15.970388    
   4070000   296.11515     -6686.9051      1143.579      -2895.3371      15.801531    
   4075000   311.11222     -6692.8976      1214.6165     -2696.1819      1.1236868    
   4080000   304.45545     -6689.4688      1240.6366     -2726.2606     -4.237332     
   4085000   299.90111     -6706.6223      1161.5104     -2863.2672      5.3791572    
   4090000   301.79165     -6695.4747      1168.8555     -2827.8685     -4.4844567    
   4095000   296.95357     -6696.8006      1174.9021     -2866.412      -5.3745612    
   4100000   301.09163     -6696.0733      1176.0066     -2827.5758      30.80621     
   4105000   303.56426     -6678.6886      1236.9502     -2727.1363     -30.974752    
   4110000   288.11884     -6720.0154      1180.0815     -2963.4512      6.3605373    
   4115000   304.67711     -6682.2701      1150.7907     -2806.9256      19.159225    
   4120000   306.11595     -6697.1329      1197.934      -2761.7784     -2.438446     
   4125000   298.06446     -6713.7157      1147.3704     -2900.9247      50.689683    
   4130000   300.09014     -6714.9512      1171.7254     -2859.6907      36.634077    
   4135000   300.28013     -6704.2642      1217.8768     -2801.1533     -13.440997    
   4140000   300.58025     -6686.5073      1166.5228     -2832.0667      21.23962     
   4145000   299.43707     -6720.9688      1157.9648     -2885.309       6.9704386    
   4150000   303.84451     -6709.5768      1159.419      -2833.0495      39.93751     
   4155000   305.71994     -6704.7726      1193.1484     -2777.745       1.5642698    
   4160000   300.48213     -6731.4133      1216.8111     -2827.5617      27.876382    
   4165000   298.61482     -6736.7617      1168.1613     -2898.2582      7.7833791    
   4170000   300.51703     -6718.5447      1129.0979     -2902.0942      23.734145    
   4175000   295.72532     -6686.1561      1164.529      -2877.1241     -41.946278    
   4180000   308.73996     -6709.1363      1188.6469     -2759.6039     -3.4926348    
   4185000   308.95593     -6698.0661      1228.4156     -2706.8337      23.830105    
   4190000   296.07946     -6692.2899      1198.0775     -2846.5425      17.183978    
   4195000   299.78365     -6753.9003      1184.3178     -2888.7882      2.6866376    
   4200000   299.80403     -6701.9927      1178.5396     -2842.4765     -42.806598    
   4205000   303.41526     -6724.0536      1186.871      -2823.9129     -26.825903    
   4210000   299.00332     -6718.9679      1254.8235     -2790.3282      36.393969    
   4215000   292.39155     -6673.8389      1171.1762     -2887.9717      26.256124    
   4220000   291.52268     -6714.4548      1176.6971     -2930.8364      1.4656529    
   4225000   300.48217     -6726.8653      1189.1944     -2850.63       -1.4982898    
   4230000   304.26617     -6726.3111      1230.8411     -2774.5911      24.957617    
   4235000   298.13659     -6734.5006      1183.3879     -2885.047       34.578273    
   4240000   297.2061      -6738.4404      1194.7911     -2885.9045     -1.1466739    
   4245000   296.40461     -6725.1704      1213.2901     -2861.3028     -23.328434    
   4250000   296.97471     -6741.6672      1179.008      -2906.9836      31.593248    
   4255000   305.67919     -6717.9788      1178.5406     -2805.9235      45.139706    
   4260000   297.59528     -6749.6058      1186.5494     -2901.8314      34.495644    
   4265000   298.56821     -6719.3063      1188.4111     -2860.9698     -30.877657    
   4270000   298.75238     -6731.7173      1194.8448     -2865.3002     -19.440143    
   4275000   298.04245     -6715.8855      1191.2641     -2859.3975      0.82933962   
   4280000   297.2186      -6730.2246      1172.7909     -2899.5771      41.35839     
   4285000   295.71232     -6732.5091      1156.7026     -2931.4198      25.837477    
   4290000   307.81542     -6736.4002      1153.7148     -2830.0676      31.53203     
   4295000   309.45956     -6711.0026      1210.6727     -2733.0094      2.5754977    
   4300000   300.8748      -6721.7444      1166.2432     -2864.9492      20.25764     
   4305000   296.45718     -6706.1045      1168.755      -2886.3019     -11.112202    
   4310000   304.80817     -6727.1401      1168.3981     -2833.0163      20.062747    
   4315000   304.50174     -6735.7963      1136.6542     -2876.1565      19.989987    
   4320000   295.93513     -6735.0476      1196.8979     -2891.7705      28.15634     
   4325000   292.63673     -6712.3629      1161.9396     -2933.5398      15.522123    
   4330000   306.05297     -6738.5238      1153.6293     -2848.0372      30.624406    
   4335000   292.34554     -6743.8011      1157.7007     -2971.8209      32.375665    
   4340000   304.10812     -6736.3712      1215.7144     -2801.1912      26.397635    
   4345000   303.46715     -6732.6408      1147.8212     -2871.0858      12.382851    
   4350000   303.36754     -6752.1361      1201.8185     -2837.4745     -40.936491    
   4355000   298.84371     -6708.8033      1162.0303     -2874.3839      6.2766436    
   4360000   300.26417     -6749.2049      1219.6419     -2844.4716      4.1298123    
   4365000   300.4982      -6733.0799      1161.4858     -2884.4099     -9.1591096    
[...]
 198945000   294.3615      -7066.7694      1142.9928     -3291.4694      17.884257    
 198950000   297.9643      -7060.7198      1166.26       -3229.9348      8.7936803    
 198955000   296.55232     -7124.0434      1174.995      -3297.15       -29.430464    
 198960000   295.42119     -7102.623       1189.9559     -3270.8837     -1.6795767    
 198965000   304.67854     -7079.1812      1113.8834     -3240.7312     -29.853993    
 198970000   299.8377      -7062.32        1173.7612     -3207.2811     -6.7408094    
 198975000   304.66339     -7092.6677      1164.7789     -3203.4576     -12.900462    
 198980000   306.38701     -7088.6473      1125.6167     -3223.1862     -3.7830122    
 198985000   308.97692     -7084.6815      1129.0231     -3192.6539      24.547096    
 198990000   298.05851     -7103.7822      1184.4379     -3253.9769     -42.173084    
 198995000   295.99818     -7087.9954      1164.1313     -3276.9211      7.5272143    
 199000000   308.81924     -7065.2541      1138.5713     -3165.0884     -26.63346     
 199005000   297.23378     -7073.6735      1157.8515     -3257.8297      12.430399    
 199010000   303.58776     -7112.3779      1126.7198     -3270.8457      7.1238353    
 199015000   298.52333     -7090.8723      1165.0072     -3256.3411     -25.557281    
 199020000   304.39978     -7056.8778      1158.6361     -3176.168      -0.37089707   
 199025000   295.82571     -7076.3114      1110.8502     -3320.0604     -11.909914    
 199030000   300.75692     -7046.0477      1174.156      -3182.394       14.643877    
 199035000   300.21256     -7103.1141      1179.0689     -3239.4154     -8.7201635    
 199040000   303.38114     -7075.0477      1198.9192     -3163.1639      7.3889635    
 199045000   295.39689     -7068.5517      1137.0589     -3289.9268     -37.62961     
 199050000   298.99967     -7064.0693      1216.0557     -3174.2299      3.5426383    
 199055000   300.48728     -7099.2145      1179.1033     -3233.0246     -34.147389    
 199060000   305.76096     -7083.5929      1168.0401     -3181.3068      17.531495    
 199065000   300.50328     -7122.9867      1152.6265     -3283.1306     -42.548475    
 199070000   297.32559     -7083.8983      1149.8042     -3275.2808      11.960325    
 199075000   303.71195     -7059.3273      1161.8143     -3181.5901     -10.813756    
 199080000   300.95962     -7102.3492      1159.0728     -3251.966      -28.459851    
 199085000   301.18312     -7069.681       1173.0176     -3203.3543     -34.19948     
 199090000   301.99903     -7081.7748      1170.5656     -3210.604       0.22108629   
 199095000   300.06432     -7104.3121      1215.4634     -3205.5445      15.365452    
 199100000   304.09696     -7091.3745      1140.9714     -3231.0373     -2.9136108    
 199105000   308.0982      -7114.8476      1112.2663     -3247.4348      29.01527     
 199110000   300.35157     -7056.013       1152.8822     -3217.2579      47.915243    
 199115000   300.88433     -7100.2713      1169.6762     -3239.958       23.110016    
 199120000   306.82716     -7056.8781      1209.9434     -3103.1542      7.4569205    
 199125000   299.62432     -7071.7749      1207.8586     -3184.5468     -37.712225    
 199130000   293.90175     -7107.996       1136.4259     -3343.3743      0.52869731   
 199135000   300.60974     -7107.9043      1171.5517     -3248.171       11.089902    
 199140000   301.17375     -7086.8076      1139.5274     -3254.0549     -38.32589     
 199145000   298.29174     -7093.3925      1140.045      -3285.8944      30.646697    
 199150000   297.1204      -7109.5172      1156.8741     -3295.6646     -21.898206    
 199155000   292.91504     -7099.1918      1170.737      -3309.0825      6.8276028    
 199160000   296.57144     -7094.4289      1159.9391     -3282.4205      17.027654    
 199165000   304.88053     -7097.4025      1174.0633     -3196.9663     -10.673369    
 199170000   301.07052     -7055.5412      1134.1068     -3229.1324     -1.2253676    
 199175000   297.81435     -7095.9348      1137.5135     -3295.2372     -13.221358    
 199180000   298.3491      -7078.7649      1129.6199     -3281.179      -21.199608    
 199185000   299.47853     -7129.6793      1159.6934     -3291.92       -30.012378    
 199190000   304.46507     -7118.7439      1129.124      -3266.9622      18.660306    
 199195000   304.95615     -7112.5125      1130.4481     -3255.0153      25.898207    
 199200000   307.73704     -7105.0327      1191.8556     -3161.2601      15.358583    
 199205000   298.79345     -7069.7716      1181.802      -3216.0301     -32.420224    
 199210000   301.39224     -7090.4359      1120.3933     -3274.8635      0.090217811  
 199215000   298.24165     -7051.7856      1168.3427     -3216.4378     -4.0526415    
 199220000   300.41635     -7094.7913      1134.6577     -3273.6814     -39.298068    
 199225000   299.98371     -7106.0244      1165.1508     -3258.2901     -4.1726782    
 199230000   304.61214     -7091.2814      1123.86       -3243.4486      7.4985641    
 199235000   300.01599     -7089.1812      1132.3347     -3273.9745     -4.1352038    
 199240000   299.03362     -7063.507       1140.7159     -3248.7039      8.1069948    
 199245000   290.67824     -7110.9395      1112.6606     -3398.9091     -2.4738109    
 199250000   304.23016     -7066.9515      1169.7592     -3176.6354      4.5425898    
 199255000   300.87049     -7106.9347      1130.1992     -3286.2221     -35.423175    
 199260000   298.51705     -7065.8472      1162.1462     -3234.2331     -12.355327    
 199265000   295.00228     -7123.4073      1226.3867     -3258.9832     -27.915695    
 199270000   301.14246     -7097.5987      1174.1073     -3230.546      -15.154952    
 199275000   295.6563      -7097.1773      1179.4398     -3273.8516      61.078703    
 199280000   303.43977     -7076.9414      1164.685      -3198.7674     -2.2832417    
 199285000   298.54549     -7102.8026      1160.2478     -3272.8326     -6.6204026    
 199290000   295.86015     -7108.3755      1127.4423     -3335.2245      8.2217286    
 199295000   298.6288      -7063.2844      1194.9465     -3197.8707     -9.128823     
 199300000   299.63238     -7081.6009      1215.593      -3186.5663      21.061045    
 199305000   299.36866     -7088.9147      1183.9664     -3227.865       5.5537745    
 199310000   301.96907     -7110.6943      1141.2281     -3269.129       13.123997    
 199315000   302.98617     -7063.6436      1175.3827     -3178.8282      12.60473     
 199320000   299.51186     -7104.8715      1124.7443     -3301.7633      17.556827    
 199325000   298.18377     -7050.9657      1151.3577     -3233.1204      4.2406484    
 199330000   300.66891     -7112.8241      1180.6887     -3243.4246     -3.5401027    
 199335000   294.97546     -7065.5306      1150.0216     -3277.7116      8.0738846    
 199340000   299.0133      -7091.7977      1166.9589     -3250.9332      9.350783     
 199345000   296.69375     -7090.9577      1184.9178     -3252.8767     -34.193691    
 199350000   302.20122     -7086.7754      1110.1794     -3274.1826      36.340955    
 199355000   300.64587     -7046.6255      1127.6592     -3230.4616      10.590821    
 199360000   310.28233     -7097.1512      1155.6213     -3166.8518     -4.8730982    
 199365000   303.28462     -7113.6064      1170.2364     -3231.2684     -42.54193     
 199370000   298.65658     -7089.7105      1186.0182     -3232.9767      44.639923    
 199375000   296.05825     -7093.6435      1132.8161     -3313.3472      20.585034    
 199380000   298.01601     -7067.5913      1188.3982     -3214.2058     -14.518979    
 199385000   304.79309     -7078.5012      1218.1112     -3134.799       13.879254    
 199390000   300.67334     -7091.8627      1123.1634     -3279.949       8.3454638    
 199395000   300.99124     -7063.5174      1168.5508     -3203.3734      37.119806    
 199400000   295.55328     -7086.581       1134.4216     -3309.1948     -14.556989    
 199405000   291.85312     -7052.282       1150.7195     -3291.6863      28.459037    
 199410000   301.81851     -7083.4854      1167.792      -3216.7026      10.682998    
 199415000   303.29421     -7092.0423      1164.6344     -3215.2206     -7.4629177    
 199420000   303.44327     -7083.4436      1170.5546     -3199.3689     -15.636084    
 199425000   296.95973     -7068.7199      1174.6397     -3238.5386      35.996017    
 199430000   298.58791     -7057.1347      1176.5095     -3210.5236     -33.781758    
 199435000   306.87535     -7107.9694      1160.0855     -3203.6725      32.214045    
 199440000   300.22725     -7111.803       1133.9713     -3293.0705     -35.86767     
 199445000   304.35179     -7079.8138      1199.1821     -3158.9871      6.4797058    
 199450000   300.22185     -7051.3189      1140.426      -3226.18       -16.967262    
 199455000   298.56483     -7057.5117      1156.1475     -3231.4691      40.276302    
 199460000   302.45016     -7086.656       1163.5811     -3218.4354      4.5237098    
 199465000   307.97163     -7081.0388      1160.2907     -3166.7333      19.961025    
 199470000   297.63955     -7099.5802      1195.591      -3242.3684     -10.79        
 199475000   301.11857     -7089.2194      1137.2012     -3259.2864     -30.456456    
 199480000   299.70258     -7056.2664      1159.8563     -3216.3407      1.0889407    
 199485000   300.25429     -7102.9557      1173.9706     -3243.982      -14.185852    
 199490000   296.76313     -7074.4709      1150.7252     -3269.9621     -16.045986    
 199495000   299.30943     -7076.9132      1179.8149     -3220.5445     -1.1356896    
 199500000   304.03554     -7093.0594      1145.2692     -3228.9736      6.6841992    
 199505000   299.37099     -7112.4012      1141.0117     -3294.2853      36.312846    
 199510000   298.20862     -7110.6864      1157.2856     -3286.691      -10.345033    
 199515000   302.06114     -7060.731       1145.1744     -3214.396       8.9246067    
 199520000   296.67452     -7103.4902      1175.4033     -3275.0956     -3.3798907    
 199525000   299.47429     -7056.0409      1196.8304     -3181.1826      31.612093    
 199530000   296.78879     -7083.6606      1168.5782     -3261.0694      13.802525    
 199535000   295.21948     -7096.0636      1136.5922     -3319.4918      35.201133    
 199540000   295.75408     -7085.669       1194.3215     -3246.5874      19.190651    
 199545000   305.81326     -7089.7683      1201.8127     -3153.2419     -23.80045     
 199550000   306.03772     -7076.1391      1129.9043     -3209.5138     -5.370662     
 199555000   299.50134     -7071.2795      1157.2381     -3235.7715     -11.163689    
 199560000   293.37636     -7120.1959      1207.0919     -3289.6065     -1.5195484    
 199565000   300.06701     -7080.1061      1169.7252     -3227.0526      18.404408    
 199570000   293.77149     -7052.1577      1182.8738     -3242.2529      16.779644    
 199575000   300.78326     -7054.494       1130.0966     -3234.6641     -27.649226    
 199580000   308.17007     -7076.0901      1117.8206     -3202.4802     -28.632011    
 199585000   305.35164     -7102.4128      1124.4316     -3247.3954      21.297438    
 199590000   307.77558     -7062.8532      1133.8474     -3176.7442      22.89412     
 199595000   296.703       -7106.7003      1145.6927     -3307.7618      28.440384    
 199600000   309.79354     -7062.9691      1179.625      -3113.0371      0.55003217   
 199605000   304.17008     -7090.7813      1154.9716     -3215.79        6.5764706    
 199610000   300.00278     -7106.1932      1159.4011     -3264.0382     -10.383049    
 199615000   308.87947     -7076.3752      1175.0651     -3139.177      -9.6208231    
 199620000   300.87564     -7073.0821      1175.967      -3206.5557     -5.3701766    
 199625000   299.17986     -7071.765       1170.5341     -3225.8359     -2.4590764    
 199630000   299.70419     -7104.8164      1214.1665     -3210.5661      18.117563    
 199635000   295.55668     -7052.6651      1141.2372     -3268.4329     -21.058314    
 199640000   295.13751     -7052.2417      1130.0294     -3282.9658     -11.154582    
 199645000   312.1281      -7076.3162      1164.1999     -3120.9325      1.6567535    
 199650000   298.98939     -7046.861       1149.5294     -3223.6399     -16.710766    
 199655000   303.01268     -7082.6323      1188.4281     -3184.5344     -39.658847    
 199660000   300.25686     -7073.8741      1201.1315     -3187.7166     -17.546962    
 199665000   299.61312     -7088.1697      1183.1944     -3225.7059      36.286163    
 199670000   299.62649     -7061.1611      1158.6984     -3223.0738     -16.122015    
 199675000   299.34005     -7093.5809      1154.3334     -3262.4201      1.3344524    
 199680000   303.79628     -7137.7992      1169.7132     -3251.4089     -13.36928     
 199685000   295.93033     -7096.3322      1188.0225     -3261.9734      22.320069    
 199690000   296.50857     -7130.0721      1147.6036     -3330.9613      39.83861     
 199695000   304.99364     -7094.4911      1141.838      -3225.2688      7.6623825    
 199700000   302.74294     -7109.116       1134.4173     -3267.441      -0.70838022   
 199705000   304.05763     -7071.7752      1141.8192     -3210.9419      26.645715    
 199710000   303.59266     -7104.3139      1107.2992     -3282.1585      41.47879     
 199715000   305.75003     -7075.9031      1201.299      -3140.4559     -4.9607851    
 199720000   296.44165     -7102.8776      1188.5762     -3263.3927     -35.480056    
 199725000   296.76597     -7041.202       1130.4611     -3256.9319      6.1305025    
 199730000   299.97207     -7058.2339      1122.3268     -3253.4279      6.8117016    
 199735000   300.19106     -7102.2996      1163.0296     -3254.8325     -1.2177767    
 199740000   300.36418     -7085.242       1161.9061     -3237.3503     -3.2369449    
 199745000   304.85101     -7115.3208      1192.1264     -3197.0855      9.5314064    
 199750000   303.16406     -7083.5918      1182.1708     -3190.3976     -6.5989336    
 199755000   298.15014     -7094.704       1170.372      -3258.1452     -19.168336    
 199760000   302.60633     -7082.7152      1168.9746     -3207.7046      11.914425    
 199765000   299.77984     -7123.8807      1190.8758     -3252.2446      19.202558    
 199770000   297.07414     -7054.205       1156.5181     -3241.1221      4.0014318    
 199775000   296.01963     -7078.4986      1129.4564     -3301.9072      38.915392    
 199780000   293.45308     -7098.839       1145.4632     -3329.1921      24.948101    
 199785000   299.48612     -7077.1773      1150.4608     -3248.5828      26.291256    
 199790000   302.22641     -7077.9325      1176.2594     -3199.0345      7.6313523    
 199795000   306.26337     -7102.647       1176.5186     -3187.3896      25.7997      
 199800000   299.79884     -7086.8839      1136.268      -3269.6857      11.382541    
 199805000   302.41549     -7061.7752      1136.9942     -3220.4516     -43.332606    
 199810000   293.80471     -7097.9145      1170.325      -3300.2614     -1.1149138    
 199815000   296.78155     -7081.0425      1166.1342     -3260.96       -34.853278    
 199820000   300.89236     -7092.0878      1091.0584     -3310.3205      9.9154375    
 199825000   294.75387     -7100.9321      1151.7648     -3313.3514     -10.096647    
 199830000   306.28628     -7067.9043      1175.9144     -3153.0462     -32.430176    
 199835000   300.35375     -7093.5366      1138.074      -3269.5702     -29.125316    
 199840000   298.35976     -7099.0204      1142.062      -3288.897       12.207532    
 199845000   282.16927     -7067.4823      1163.3988     -3380.8046     -27.563471    
 199850000   303.40891     -7087.3584      1189.1109     -3185.0346      28.704807    
 199855000   296.86757     -7088.7227      1145.8617     -3288.1435     -25.673604    
 199860000   304.00485     -7060.7277      1136.8496     -3205.3359      20.544795    
 199865000   299.12582     -7046.4924      1158.4418     -3213.1389     -7.9170875    
 199870000   296.88446     -7086.4217      1137.1092     -3294.444      -30.415576    
 199875000   305.78448     -7069.6673      1210.2858     -3124.9252     -40.909761    
 199880000   294.5647      -7084.7165      1171.7503     -3278.8419     -16.188973    
 199885000   296.4866      -7074.6445      1179.5436     -3243.7903     -10.350392    
 199890000   303.80381     -7079.794       1161.8005     -3201.2491     -5.9753291    
 199895000   295.77144     -7059.9513      1161.3205     -3253.7153      9.626546     
 199900000   299.30403     -7092.0054      1174.1526     -3241.3474     -19.249177    
 199905000   300.96389     -7117.2348      1142.0895     -3283.7967     -2.244321     
 199910000   298.0899      -7108.063       1153.6822     -3288.7327      7.7770384    
 199915000   297.53834     -7100.3037      1158.6079     -3280.98       -4.8234512    
 199920000   301.95157     -7080.6811      1158.2942     -3222.2062     -8.4158309    
 199925000   295.87923     -7073.0654      1173.0023     -3254.1838      11.114002    
 199930000   301.00454     -7067.8157      1145.7928     -3230.3109      21.667094    
 199935000   298.74986     -7086.3281      1153.6756     -3261.1028      2.9436331    
 199940000   296.28189     -7045.139       1127.057      -3268.6019      5.6264919    
 199945000   305.91214     -7086.7135      1179.263      -3171.8525     -22.840194    
 199950000   305.48961     -7099.2939      1182.7425     -3184.732       13.532333    
 199955000   302.41241     -7100.7095      1172.4326     -3223.975      -27.747456    
 199960000   295.32842     -7076.3007      1164.9665     -3270.3804     -41.849036    
 199965000   295.00391     -7121.4137      1180.2012     -3303.1607      16.38291     
 199970000   300.26883     -7073.1647      1147.1928     -3240.8389      13.68254     
 199975000   296.99491     -7112.667       1178.4616     -3278.3492      21.196574    
 199980000   292.9066      -7074.1237      1161.7952     -3293.0317     -26.499774    
 199985000   301.34094     -7072.1059      1155.5594     -3221.8262     -4.1278764    
 199990000   300.0679      -7055.4835      1144.8348     -3227.3125      48.395125    
 199995000   296.52829     -7069.9124      1163.053      -3255.1759      25.853275    
 200000000   308.38216     -7106.7487      1173.274      -3175.7888     -3.1134535    
 200005000   305.47328     -7092.674       1167.9357     -3193.0648     -46.90602     
 200010000   301.73486     -7073.4488      1140.2069     -3234.999       2.6285114    
Loop time of 134669 on 64 procs for 200000000 steps with 3001 atoms

Performance: 3849.434 ns/day, 0.006 hours/ns, 1485.121 timesteps/s
99.6% CPU use with 64 MPI tasks x 1 OpenMP threads

MPI task timing breakdown:
Section |  min time  |  avg time  |  max time  |%varavg| %total
---------------------------------------------------------------
Pair    | 174.25     | 3956.3     | 30261      |14710.8 |  2.94
Bond    | 175.62     | 439.71     | 2173.8     |3060.1 |  0.33
Neigh   | 41540      | 42534      | 44310      | 351.7 | 31.58
Comm    | 53879      | 85618      | 91006      |3795.7 | 63.58
Output  | 180.46     | 181.68     | 182.43     |   4.4 |  0.13
Modify  | 290.17     | 715.65     | 3436.6     |3617.8 |  0.53
Other   |            | 1224       |            |       |  0.91

Nlocal:        46.8906 ave         244 max           2 min
Histogram: 40 16 0 0 0 0 0 0 0 8
Nghost:         3460.2 ave        3924 max        2880 min
Histogram: 8 0 0 0 24 0 12 12 0 8
Neighs:        1000.67 ave        7485 max           5 min
Histogram: 56 0 0 0 0 0 0 0 1 7
FullNghs:      2001.34 ave       14922 max           9 min
Histogram: 56 0 0 0 0 0 0 0 0 8

Total # of neighbors = 128086
Ave neighs/atom = 42.681106
Ave special neighs/atom = 3.5988004
Neighbor list builds = 20000000
Dangerous builds = 20000000
Total wall time: 37:24:33
