ITEM: TIMESTEP
0
ITEM: NUMBER OF ATOMS
4501
ITEM: BOX BOUNDS pp pp pp
0.0000000000000000e+00 1.5000000000000000e+02
0.0000000000000000e+00 1.5000000000000000e+02
0.0000000000000000e+00 1.5000000000000000e+02
ITEM: ATOMS type x y z
4 75 75 75
2 5.63052 24.7002 46.1953
1 10.3039 24.4893 46.6478
1 14.9773 24.2784 47.1003
1 19.6508 24.0675 47.5528
1 24.3242 23.8566 48.0053
2 28.9852 148.084 33.7403
1 31.5659 0.22097 30.4443
1 34.1466 2.35778 27.1482
1 36.7273 4.49458 23.8522
1 39.3081 6.63139 20.5562
2 22.2498 13.915 21.4594
1 19.5234 10.3452 22.8425
1 16.797 6.7754 24.2257
1 14.0705 3.20561 25.6088
1 11.3441 149.636 26.9919
2 45.3435 38.4969 20.3613
1 43.7849 42.8554 21.1767
1 42.2263 47.2138 21.9921
1 40.6677 51.5722 22.8076
1 39.1091 55.9306 23.623
2 52.1594 25.8482 17.0576
1 56.5767 26.08 18.6463
1 60.994 26.3117 20.2349
1 65.4113 26.5434 21.8236
1 69.8286 26.7751 23.4123
2 14.2421 26.9733 31.8283
1 18.8044 26.152 32.6031
1 23.3668 25.3307 33.378
1 27.9291 24.5094 34.1529
1 32.4915 23.6881 34.9278
2 20.7499 51.6808 7.33225
1 17.6099 48.184 7.28257
1 14.4698 44.6872 7.23288
1 11.3298 41.1903 7.1832
1 8.1898 37.6935 7.13352
2 3.38666 52.5012 17.9805
1 3.77411 47.9297 19.0007
1 4.16156 43.3581 20.0209
1 4.54901 38.7866 21.0412
1 4.93646 34.215 22.0614
2 143.795 40.7282 2.38381
1 147.412 38.5085 4.40438
1 1.02852 36.2888 6.42495
1 4.64518 34.0691 8.44552
1 8.26184 31.8494 10.4661
2 26.677 20.4426 26.9779
1 30.8987 18.7988 25.7267
1 35.1203 17.155 24.4754
1 39.342 15.5112 23.2242
1 43.5636 13.8674 21.9729
2 53.4111 52.2867 39.219
1 49.7644 50.0499 41.1651
1 46.1176 47.813 43.1112
1 42.4708 45.5761 45.0573
1 38.824 43.3393 47.0035
2 47.073 15.109 23.5884
1 47.4466 14.7355 28.2586
1 47.8202 14.362 32.9289
1 48.1938 13.9886 37.5991
1 48.5675 13.6151 42.2693
2 2.93439 54.081 38.6525
1 6.63614 51.6029 40.1512
1 10.3379 49.1249 41.6499
1 14.0397 46.6468 43.1486
1 17.7414 44.1687 44.6473
2 40.9602 4.80995 19.475
1 45.4876 3.55685 19.3255
1 50.015 2.30375 19.1759
1 54.5424 1.05065 19.0264
1 59.0698 149.798 18.8769
2 39.8633 40.4635 26.5493
1 41.018 43.669 23.3119
1 42.1727 46.8745 20.0744
1 43.3274 50.0801 16.8369
1 44.4821 53.2856 13.5994
2 70.6684 40.5689 39.3591
1 67.7503 37.9614 41.9622
1 64.8322 35.354 44.5653
1 61.9141 32.7466 47.1683
1 58.996 30.1391 49.7714
2 34.1887 15.043 11.4792
1 35.1718 10.4983 12.1643
1 36.1549 5.95364 12.8495
1 37.138 1.40896 13.5346
1 38.1211 146.864 14.2198
2 50.8605 31.7122 21.5991
1 50.5053 27.0262 21.6707
1 50.1501 22.3402 21.7424
1 49.7949 17.6542 21.8141
1 49.4397 12.9682 21.8858
2 25.3678 34.9963 148.941
1 22.3061 38.4269 149.914
1 19.2445 41.8576 0.887056
1 16.1828 45.2883 1.86004
1 13.1212 48.719 2.83302
2 26.6333 52.5776 6.81007
1 27.0712 48.4049 8.92833
1 27.509 44.2322 11.0466
1 27.9469 40.0596 13.1649
1 28.3847 35.8869 15.2831
2 149.412 22.4583 9.88788
1 3.9457 21.5064 9.09704
1 8.47983 20.5544 8.3062
1 13.014 19.6025 7.51535
1 17.5481 18.6505 6.72451
2 39.9135 45.0348 7.26039
1 43.158 41.6703 6.76746
1 46.4026 38.3058 6.27452
1 49.6471 34.9413 5.78159
1 52.8917 31.5768 5.28865
2 23.2746 19.2421 17.504
1 21.076 21.3847 21.0628
1 18.8775 23.5274 24.6216
1 16.6789 25.67 28.1804
1 14.4803 27.8127 31.7393
2 46.4672 26.8944 42.1511
1 50.8032 25.082 42.0829
1 55.1391 23.2696 42.0148
1 59.4751 21.4572 41.9467
1 63.8111 19.6448 41.8785
2 148.208 12.2934 33.881
1 149.823 9.47241 37.2759
1 1.4373 6.65144 40.6709
1 3.05175 3.83046 44.0658
1 4.66619 1.00948 47.4607
2 38.6393 28.2303 36.0356
1 43.3328 27.9854 36.0037
1 48.0263 27.7406 35.9718
1 52.7198 27.4957 35.9399
1 57.4133 27.2509 35.9081
2 27.4115 15.0481 13.2272
1 26.598 12.0224 9.72397
1 25.7844 8.99662 6.22068
1 24.9709 5.97087 2.7174
1 24.1573 2.94513 149.214
2 10.3773 29.6004 34.3301
1 10.8656 28.2557 38.8071
1 11.354 26.911 43.284
1 11.8424 25.5663 47.761
1 12.3308 24.2216 52.238
2 21.6048 14.8921 3.02994
1 25.9304 14.6441 4.85125
1 30.2561 14.3962 6.67256
1 34.5818 14.1482 8.49386
1 38.9074 13.9003 10.3152
2 35.0764 8.48884 22.3067
1 39.7747 8.43084 22.4179
1 44.473 8.37285 22.5291
1 49.1714 8.31486 22.6402
1 53.8697 8.25687 22.7514
2 13.2065 34.2596 9.38602
1 14.7886 38.4961 8.10574
1 16.3707 42.7326 6.82547
1 17.9528 46.9691 5.54519
1 19.5349 51.2056 4.26491
2 56.2057 26.4254 12.8975
1 51.8305 28.0373 13.4881
1 47.4552 29.6492 14.0786
1 43.0799 31.2611 14.6691
1 38.7047 32.873 15.2597
2 18.6714 0.0988097 25.2047
1 20.6928 3.92789 23.3765
1 22.7142 7.75698 21.5484
1 24.7356 11.5861 19.7202
1 26.757 15.4151 17.8921
2 38.0148 27.8304 21.316
1 42.2575 28.5168 19.4139
1 46.5002 29.2032 17.5118
1 50.7429 29.8895 15.6096
1 54.9857 30.5759 13.7075
2 3.20645 2.20474 30.5341
1 7.79708 1.20145 30.4365
1 12.3877 0.198152 30.3389
1 16.9783 149.195 30.2413
1 21.569 148.192 30.1437
2 52.716 40.0536 143.93
1 54.026 36.9082 147.167
1 55.3361 33.7627 0.404615
1 56.6462 30.6173 3.64192
1 57.9562 27.4719 6.87922
2 40.1775 28.0898 24.4956
1 44.2181 30.4272 25.0437
1 48.2586 32.7647 25.5917
1 52.2992 35.1021 26.1398
1 56.3398 37.4395 26.6878
2 47.0494 38.6556 25.639
1 51.6838 39.0035 26.34
1 56.3182 39.3513 27.0409
1 60.9526 39.6991 27.7419
1 65.587 40.0469 28.4428
2 12.7919 37.8909 39.8918
1 11.2656 37.4035 44.3102
1 9.73921 36.9161 48.7287
1 8.21285 36.4287 53.1471
1 6.68648 35.9413 57.5655
2 32.1563 148.042 6.71283
1 31.911 1.33765 10.0553
1 31.6657 4.6328 13.3977
1 31.4203 7.92795 16.7401
1 31.175 11.2231 20.0825
2 30.4253 13.6826 6.39656
1 27.5918 13.9994 10.133
1 24.7584 14.3163 13.8695
1 21.925 14.6332 17.606
1 19.0915 14.95 21.3425
2 49.0089 16.7045 23.8967
1 47.812 13.1365 21.0812
1 46.6151 9.56853 18.2657
1 45.4182 6.00056 15.4502
1 44.2213 2.43259 12.6347
2 63.7453 26.0875 38.934
1 66.0912 25.3163 34.935
1 68.4372 24.5452 30.936
1 70.7832 23.774 26.9371
1 73.1292 23.0029 22.9381
2 33.6123 18.4512 34.9668
1 37.7666 16.92 36.5438
1 41.9209 15.3887 38.1208
1 46.0753 13.8575 39.6978
1 50.2296 12.3262 41.2748
2 70.3753 20.078 2.39716
1 70.7669 16.4562 5.36692
1 71.1586 12.8344 8.33667
1 71.5503 9.21267 11.3064
1 71.942 5.59091 14.2762
2 146.231 49.1045 19.8749
1 0.321322 47.8867 17.9061
1 4.41165 46.669 15.9372
1 8.50199 45.4513 13.9684
1 12.5923 44.2335 11.9996
2 17.487 14.6711 43.7187
1 22.0464 14.6329 42.5786
1 26.6059 14.5946 41.4384
1 31.1653 14.5563 40.2983
1 35.7248 14.5181 39.1581
2 49.7321 24.0125 41.5552
1 54.4081 24.422 41.7958
1 59.084 24.8314 42.0365
1 63.7599 25.2409 42.2771
1 68.4359 25.6503 42.5178
2 24.0502 37.2709 38.7401
1 28.6978 36.6425 39.048
1 33.3454 36.0141 39.3558
1 37.993 35.3857 39.6637
1 42.6406 34.7573 39.9716
2 146.444 147.401 3.10849
1 0.658496 149.129 1.94975
1 4.87302 0.856833 0.791012
1 9.08755 2.58458 149.632
1 13.3021 4.31232 148.474
2 51.8884 32.3871 84.6588
1 52.3004 35.179 80.9004
1 52.7124 37.9709 77.142
1 53.1245 40.7628 73.3836
1 53.5365 43.5547 69.6252
2 9.56829 42.7884 66.1478
1 6.92309 45.5913 63.4577
1 4.27788 48.3942 60.7676
1 1.63268 51.197 58.0774
1 148.987 53.9999 55.3873
2 47.5083 38.2851 55.9341
1 52.1319 38.3549 55.0928
1 56.7554 38.4247 54.2515
1 61.379 38.4945 53.4102
1 66.0025 38.5644 52.5689
2 70.1333 38.5978 92.4581
1 71.7355 36.5264 88.5553
1 73.3376 34.455 84.6524
1 74.9397 32.3836 80.7495
1 76.5418 30.3122 76.8466
2 49.4652 43.4823 82.8117
1 53.9584 44.8545 82.9458
1 58.4516 46.2268 83.0798
1 62.9448 47.599 83.2138
1 67.4381 48.9712 83.3478
2 25.9137 2.48682 100.595
1 30.5433 1.9202 100.015
1 35.1729 1.35357 99.4358
1 39.8025 0.786941 98.8563
1 44.4321 0.220314 98.2769
2 46.3273 21.1599 108.149
1 45.5925 22.7386 103.784
1 44.8578 24.3172 99.418
1 44.123 25.8959 95.0525
1 43.3882 27.4745 90.6869
2 34.5146 44.6446 95.1108
1 34.158 47.0423 91.0841
1 33.8014 49.4399 87.0574
1 33.4448 51.8376 83.0308
1 33.0882 54.2353 79.0041
2 6.10234 33.998 65.9804
1 8.77725 30.174 65.4218
1 11.4522 26.35 64.8632
1 14.1271 22.526 64.3047
1 16.802 18.7021 63.7461
2 24.7183 41.3525 92.47
1 27.5638 40.1528 88.9268
1 30.4093 38.9531 85.3837
1 33.2548 37.7535 81.8405
1 36.1003 36.5538 78.2974
2 7.6926 2.06803 73.1825
1 12.3517 1.63413 72.7417
1 17.0108 1.20023 72.3008
1 21.67 0.766331 71.86
1 26.3291 0.33243 71.4192
2 58.0752 34.9082 100.217
1 60.686 31.2905 98.7384
1 63.2967 27.6728 97.2597
1 65.9074 24.0551 95.7811
1 68.5182 20.4374 94.3025
2 13.407 31.9173 72.8651
1 17.7578 30.187 72.4566
1 22.1086 28.4567 72.0481
1 26.4593 26.7264 71.6396
1 30.8101 24.9961 71.2311
2 49.1184 16.3834 97.1345
1 50.7095 17.0299 92.7596
1 52.3007 17.6765 88.3846
1 53.8919 18.323 84.0097
1 55.483 18.9695 79.6347
2 64.7628 32.0521 55.4111
1 67.9658 32.3872 58.8344
1 71.1687 32.7222 62.2577
1 74.3717 33.0573 65.681
1 77.5746 33.3923 69.1043
2 32.1815 21.3786 94.1916
1 30.2197 25.2797 92.453
1 28.2578 29.1807 90.7143
1 26.296 33.0818 88.9757
1 24.3341 36.9829 87.2371
2 17.2687 13.786 95.0273
1 17.4259 17.5118 92.1666
1 17.5832 21.2375 89.3058
1 17.7405 24.9633 86.445
1 17.8978 28.6891 83.5843
2 60.6219 31.2455 95.2133
1 61.6248 32.4755 90.7893
1 62.6277 33.7054 86.3654
1 63.6306 34.9353 81.9414
1 64.6335 36.1652 77.5174
2 59.1133 19.5089 65.3622
1 62.9407 21.3095 63.3132
1 66.7682 23.1101 61.2642
1 70.5957 24.9107 59.2152
1 74.4231 26.7113 57.1662
2 40.7889 34.0522 89.2909
1 39.1511 34.4944 84.9077
1 37.5132 34.9367 80.5246
1 35.8754 35.3789 76.1415
1 34.2376 35.8211 71.7583
2 54.1794 20.8783 101.315
1 50.8797 24.0168 100.153
1 47.58 27.1553 98.9899
1 44.2803 30.2938 97.8273
1 40.9806 33.4323 96.6647
2 49.4493 33.2008 78.2308
1 48.3629 28.9992 76.4262
1 47.2764 24.7977 74.6216
1 46.19 20.5961 72.817
1 45.1035 16.3946 71.0123
2 7.12885 9.5656 98.4056
1 4.42139 7.70395 95.045
1 1.71392 5.84231 91.6843
1 149.006 3.98066 88.3237
1 146.299 2.11902 84.963
2 43.781 0.489269 93.199
1 47.0721 2.09056 96.1476
1 50.3632 3.69186 99.0963
1 53.6542 5.29316 102.045
1 56.9453 6.89445 104.994
2 51.9476 7.90359 51.4678
1 56.622 7.46081 51.6785
1 61.2963 7.01802 51.8893
1 65.9707 6.57524 52.1
1 70.645 6.13245 52.3107
2 17.3929 38.564 101.987
1 16.3863 37.9645 97.4358
1 15.3797 37.365 92.8841
1 14.3732 36.7655 88.3325
1 13.3666 36.166 83.7808
2 44.9338 55.494 82.42
1 47.9622 52.2527 83.9733
1 50.9906 49.0115 85.5267
1 54.019 45.7702 87.0801
1 57.0474 42.5289 88.6334
2 14.8133 9.62082 91.6145
1 12.3868 6.63397 94.3128
1 9.96035 3.64711 97.0112
1 7.53389 0.660258 99.7095
1 5.10743 147.673 102.408
2 145.653 14.1248 71.9437
1 0.3037 14.2625 72.6103
1 4.95415 14.4001 73.2769
1 9.6046 14.5378 73.9435
1 14.2551 14.6755 74.6101
2 63.0145 13.0359 70.3148
1 58.4473 13.3699 71.3727
1 53.8802 13.704 72.4307
1 49.313 14.038 73.4886
1 44.7458 14.372 74.5466
2 58.1452 37.7917 93.2573
1 62.225 35.8691 91.9347
1 66.3048 33.9466 90.6121
1 70.3845 32.0241 89.2895
1 74.4643 30.1015 87.9668
2 7.55035 38.0373 94.8596
1 7.61426 42.5787 96.0687
1 7.67818 47.1201 97.2777
1 7.74209 51.6615 98.4868
1 7.806 56.2028 99.6959
2 55.3753 6.9609 67.4027
1 59.3977 5.14684 65.7844
1 63.4202 3.33279 64.1661
1 67.4427 1.51873 62.5478
1 71.4651 149.705 60.9295
2 53.8865 23.2031 72.8421
1 57.7167 21.1713 74.6563
1 61.5469 19.1394 76.4705
1 65.3771 17.1076 78.2847
1 69.2073 15.0758 80.0989
2 13.112 18.3177 99.5673
1 15.0127 15.3733 96.4356
1 16.9133 12.4289 93.3038
1 18.814 9.48458 90.172
1 20.7147 6.54021 87.0402
2 11.9137 35.7186 55.2351
1 14.8428 39.3832 54.9508
1 17.7719 43.0478 54.6666
1 20.7011 46.7124 54.3824
1 23.6302 50.377 54.0981
2 11.5131 9.74827 94.7826
1 15.0522 11.8918 92.5532
1 18.5913 14.0352 90.3238
1 22.1304 16.1787 88.0944
1 25.6695 18.3222 85.865
2 61.9038 7.91794 83.5932
1 64.1216 11.802 85.0372
1 66.3394 15.6861 86.4812
1 68.5572 19.5702 87.9252
1 70.775 23.4543 89.3693
2 22.2985 25.172 71.1308
1 26.9738 24.708 70.9999
1 31.649 24.2441 70.869
1 36.3242 23.7802 70.7381
1 40.9994 23.3163 70.6072
2 16.0301 8.76159 49.7243
1 17.498 9.76422 54.0751
1 18.966 10.7668 58.426
1 20.4339 11.7695 62.7769
1 21.9018 12.7721 67.1277
2 45.1961 149.64 72.8061
1 49.5288 0.183728 74.5445
1 53.8615 0.727452 76.2828
1 58.1943 1.27118 78.0212
1 62.527 1.8149 79.7595
2 51.3551 45.3232 87.4957
1 52.0337 40.9779 85.8379
1 52.7124 36.6326 84.1802
1 53.391 32.2873 82.5225
1 54.0696 27.942 80.8648
2 34.2134 48.0419 55.802
1 37.5013 46.7633 58.9076
1 40.7893 45.4847 62.0131
1 44.0772 44.2061 65.1187
1 47.3652 42.9275 68.2243
2 45.5205 19.9358 93.6579
1 50.2047 19.5827 93.5057
1 54.889 19.2297 93.3536
1 59.5732 18.8766 93.2014
1 64.2575 18.5236 93.0492
2 63.248 14.0332 128.259
1 61.9379 17.7435 125.688
1 60.6278 21.4537 123.118
1 59.3177 25.164 120.548
1 58.0076 28.8743 117.977
2 36.3666 34.9496 134.17
1 38.7113 30.9018 134.626
1 41.0559 26.854 135.082
1 43.4006 22.8062 135.538
1 45.7453 18.7584 135.994
2 46.0779 35.6849 125.829
1 44.7054 40.1181 125.086
1 43.3328 44.5513 124.343
1 41.9603 48.9846 123.599
1 40.5877 53.4178 122.856
2 63.318 22.8605 118.926
1 63.5167 18.2746 117.916
1 63.7153 13.6888 116.906
1 63.914 9.10286 115.896
1 64.1126 4.51697 114.886
2 51.9982 26.6091 111.399
1 54.5324 22.6745 111.831
1 57.0666 18.7399 112.264
1 59.6008 14.8054 112.697
1 62.135 10.8708 113.129
2 51.3883 26.6265 95.2724
1 53.7234 26.2797 99.3365
1 56.0585 25.9328 103.401
1 58.3937 25.586 107.465
1 60.7288 25.2392 111.529
2 61.0771 10.3461 127.17
1 64.1631 7.69796 124.813
1 67.2491 5.04983 122.456
1 70.335 2.4017 120.099
1 73.421 149.754 117.743
2 38.497 40.5348 121.577
1 35.3589 37.7235 119.494
1 32.2208 34.9121 117.411
1 29.0827 32.1007 115.328
1 25.9446 29.2893 113.245
2 67.4868 1.25208 107.794
1 71.0049 4.35982 107.559
1 74.523 7.46756 107.324
1 78.041 10.5753 107.089
1 81.5591 13.683 106.855
2 47.9003 27.8756 126.09
1 43.2956 27.5208 126.962
1 38.6909 27.1659 127.834
1 34.0861 26.8111 128.706
1 29.4814 26.4562 129.578
2 19.7648 34.3964 112.245
1 20.7987 38.5544 114.177
1 21.8327 42.7123 116.108
1 22.8667 46.8703 118.04
1 23.9007 51.0283 119.972
2 62.4443 13.4619 116.879
1 62.8257 16.726 120.239
1 63.207 19.9901 123.599
1 63.5883 23.2542 126.959
1 63.9697 26.5183 130.319
2 61.7992 43.9954 92.9012
1 64.7752 44.1879 96.5339
1 67.7512 44.3803 100.167
1 70.7272 44.5728 103.799
1 73.7032 44.7653 107.432
2 31.01 18.2429 127.755
1 35.5641 17.171 127.307
1 40.1182 16.0991 126.859
1 44.6723 15.0271 126.41
1 49.2264 13.9552 125.962
2 24.0058 21.8635 130.225
1 28.586 22.3103 129.27
1 33.1661 22.7571 128.314
1 37.7462 23.2039 127.359
1 42.3264 23.6507 126.404
2 36.6073 31.7557 114.258
1 39.1617 27.8495 113.705
1 41.7162 23.9432 113.152
1 44.2706 20.0369 112.599
1 46.8251 16.1306 112.046
2 24.1898 34.8104 141.254
1 23.3281 39.0208 139.351
1 22.4664 43.2312 137.449
1 21.6048 47.4417 135.546
1 20.7431 51.6521 133.644
2 35.6147 43.0188 122.741
1 35.0739 44.9633 126.985
1 34.533 46.9079 131.23
1 33.9922 48.8525 135.474
1 33.4514 50.7971 139.719
2 27.2272 39.6031 139.829
1 31.3084 41.252 138.181
1 35.3896 42.901 136.533
1 39.4708 44.5499 134.886
1 43.552 46.1988 133.238
2 57.3837 43.142 106.423
1 60.2513 41.0837 103.319
1 63.1189 39.0254 100.216
1 65.9865 36.9671 97.1129
1 68.8541 34.9088 94.0097
2 18.9138 149.421 132.894
1 23.4823 149.759 131.843
1 28.0508 0.0970305 130.792
1 32.6193 0.435059 129.741
1 37.1879 0.773088 128.69
2 37.4849 31.1947 141.899
1 42.1355 31.8716 141.965
1 46.786 32.5485 142.031
1 51.4365 33.2253 142.097
1 56.0871 33.9022 142.163
2 68.3495 46.4628 117.494
1 65.3059 44.6413 120.578
1 62.2623 42.8199 123.662
1 59.2187 40.9984 126.745
1 56.1751 39.177 129.829
2 38.3398 42.4059 145.021
1 42.425 44.6261 145.708
1 46.5102 46.8463 146.395
1 50.5954 49.0666 147.082
1 54.6806 51.2868 147.769
2 7.64143 17.7027 147.886
1 6.77519 14.7906 144.3
1 5.90896 11.8784 140.714
1 5.04273 8.9663 137.129
1 4.17649 6.05417 133.543
2 9.87568 35.7761 112.516
1 14.3814 36.531 113.62
1 18.8872 37.2859 114.724
1 23.393 38.0408 115.828
1 27.8987 38.7957 116.931
2 9.36048 16.53 113.863
1 9.25473 16.8003 109.172
1 9.14899 17.0705 104.481
1 9.04325 17.3408 99.7903
1 8.9375 17.6111 95.0992
2 63.7411 6.04948 143.586
1 68.0565 4.31415 142.91
1 72.3718 2.57882 142.235
1 76.6871 0.843489 141.559
1 81.0025 149.108 140.883
2 17.1244 52.9184 116.263
1 16.0516 49.9482 112.782
1 14.9787 46.978 109.301
1 13.9058 44.0078 105.82
1 12.833 41.0376 102.339
2 17.67 21.1134 144.423
1 13.6106 23.3414 143.618
1 9.55111 25.5693 142.814
1 5.49165 27.7972 142.009
1 1.43218 30.0251 141.205
2 67.9264 44.1654 128.034
1 69.0435 41.6763 124.207
1 70.1606 39.1873 120.38
1 71.2777 36.6982 116.553
1 72.3948 34.2092 112.726
2 0.592193 5.02483 147.289
1 5.28523 4.88636 147.504
1 9.97827 4.74789 147.719
1 14.6713 4.60942 147.934
1 19.3643 4.47094 148.149
2 143.52 5.83718 122.691
1 147.162 3.67627 120.651
1 0.803327 1.51536 118.612
1 4.44511 149.354 116.573
1 8.08689 147.194 114.534
2 17.4625 42.5944 149.413
1 17.3941 43.3949 144.782
1 17.3258 44.1953 140.151
1 17.2574 44.9957 135.52
1 17.1891 45.7961 130.889
2 63.038 40.3642 132.433
1 65.3455 42.4984 135.927
1 67.653 44.6326 139.422
1 69.9606 46.7667 142.916
1 72.2681 48.9009 146.41
2 54.6128 15.1541 107.093
1 56.9418 14.6445 111.144
1 59.2708 14.1349 115.194
1 61.5998 13.6253 119.245
1 63.9287 13.1157 123.295
2 57.8396 15.5348 125.344
1 62.1118 15.5894 127.303
1 66.384 15.644 129.261
1 70.6562 15.6986 131.22
1 74.9284 15.7532 133.178
2 57.7733 34.485 135.265
1 61.4367 36.0377 132.763
1 65.1001 37.5903 130.261
1 68.7635 39.1429 127.76
1 72.4269 40.6956 125.258
2 36.4297 7.99831 129.188
1 37.2697 8.13939 124.566
1 38.1096 8.28048 119.944
1 38.9496 8.42156 115.322
1 39.7895 8.56264 110.699
2 53.1515 7.15933 136.427
1 50.8784 8.73805 140.226
1 48.6054 10.3168 144.024
1 46.3323 11.8955 147.823
1 44.0592 13.4742 1.62205
2 58.376 21.1004 107.808
1 63.0718 21.2677 107.703
1 67.7677 21.435 107.598
1 72.4635 21.6022 107.492
1 77.1594 21.7695 107.387
2 45.0686 9.23155 118.224
1 47.7386 12.9907 117.314
1 50.4086 16.7499 116.403
1 53.0786 20.5092 115.492
1 55.7486 24.2684 114.581
2 33.7515 25.9293 118.859
1 34.485 21.8129 121.006
1 35.2185 17.6964 123.152
1 35.952 13.5799 125.298
1 36.6856 9.46345 127.445
2 26.1072 47.0219 126.967
1 27.9905 42.8414 125.934
1 29.8738 38.661 124.901
1 31.7571 34.4805 123.868
1 33.6404 30.3001 122.835
2 11.2132 10.5797 116.721
1 14.1304 14.2628 116.843
1 17.0475 17.9459 116.966
1 19.9647 21.629 117.088
1 22.8819 25.3121 117.211
2 28.5735 13.6306 100.372
1 29.8697 9.32625 101.744
1 31.1659 5.0219 103.116
1 32.4621 0.717557 104.488
1 33.7583 146.413 105.86
2 63.578 64.0606 2.49364
1 64.1482 68.7249 2.39932
1 64.7185 73.3892 2.30501
1 65.2887 78.0535 2.2107
1 65.859 82.7178 2.11639
2 36.4792 90.5516 31.2263
1 40.0232 88.0849 33.0824
1 43.5673 85.6182 34.9384
1 47.1114 83.1515 36.7945
1 50.6554 80.6848 38.6505
2 16.5935 76.4949 26.2626
1 13.529 75.6927 29.7346
1 10.4644 74.8904 33.2066
1 7.39981 74.0882 36.6786
1 4.33524 73.2859 40.1506
2 68.5231 80.4262 1.79147
1 71.7126 80.1833 5.23503
1 74.9021 79.9404 8.67859
1 78.0916 79.6975 12.1221
1 81.2811 79.4546 15.5657
2 30.2062 82.5376 40.9701
1 34.4947 82.0654 39.106
1 38.7833 81.5932 37.2418
1 43.0719 81.121 35.3777
1 47.3605 80.6488 33.5136
2 6.05754 70.2328 20.5353
1 10.7553 70.1337 20.6407
1 15.4531 70.0346 20.746
1 20.1509 69.9354 20.8514
1 24.8486 69.8363 20.9567
2 65.7317 94.2132 14.063
1 68.162 94.2746 10.0406
1 70.5923 94.3361 6.0182
1 73.0226 94.3975 1.99578
1 75.4529 94.4589 147.973
2 47.9494 71.021 33.4643
1 51.0636 68.3236 31.2025
1 54.1778 65.6262 28.9407
1 57.292 62.9288 26.6788
1 60.4061 60.2313 24.417
2 23.141 78.8113 21.1521
1 27.5484 79.8759 19.9147
1 31.9558 80.9406 18.6773
1 36.3632 82.0053 17.4399
1 40.7706 83.0699 16.2025
2 51.4998 56.1821 21.4613
1 52.419 56.227 16.8523
1 53.3383 56.2719 12.2433
1 54.2575 56.3169 7.63429
1 55.1768 56.3618 3.02528
2 29.4608 92.8805 39.179
1 29.2895 91.713 43.7285
1 29.1183 90.5455 48.2779
1 28.947 89.378 52.8274
1 28.7757 88.2105 57.3768
2 41.5338 78.3002 49.5167
1 45.8169 79.5141 48.0096
1 50.1 80.7281 46.5024
1 54.3831 81.942 44.9953
1 58.6662 83.1559 43.4882
2 51.4941 72.2569 15.3034
1 55.7278 72.2343 13.2625
1 59.9615 72.2117 11.2215
1 64.1951 72.189 9.18058
1 68.4288 72.1664 7.13964
2 14.8995 73.4557 10.3165
1 13.1816 72.3564 14.551
1 11.4638 71.2571 18.7854
1 9.74585 70.1579 23.0198
1 8.02795 69.0586 27.2542
2 1.78873 87.6374 19.2401
1 5.61807 85.1011 18.2433
1 9.44741 82.5648 17.2466
1 13.2767 80.0286 16.2498
1 17.1061 77.4923 15.2531
2 37.0417 57.394 22.8091
1 40.6739 55.8737 20.2429
1 44.3062 54.3534 17.6767
1 47.9385 52.8331 15.1105
1 51.5707 51.3128 12.5443
2 36.3742 55.6095 35.6616
1 40.5992 57.1687 37.0066
1 44.8241 58.7278 38.3516
1 49.049 60.287 39.6966
1 53.274 61.8461 41.0415
2 67.826 90.9712 27.7438
1 69.999 92.7482 31.5134
1 72.172 94.5252 35.2831
1 74.345 96.3022 39.0527
1 76.518 98.0792 42.8224
2 61.3006 88.058 42.3314
1 65.9686 87.7486 41.8789
1 70.6365 87.4392 41.4264
1 75.3044 87.1299 40.9739
1 79.9723 86.8205 40.5214
2 13.7637 67.2358 30.9248
1 18.2363 67.5867 29.5238
1 22.7089 67.9377 28.1228
1 27.1814 68.2886 26.7217
1 31.654 68.6395 25.3207
2 42.1721 59.5124 10.2493
1 45.2249 55.942 10.4015
1 48.2776 52.3717 10.5537
1 51.3304 48.8013 10.7059
1 54.3831 45.2309 10.8581
2 43.3843 98.0642 8.75015
1 47.4255 98.6499 6.42292
1 51.4666 99.2357 4.09568
1 55.5078 99.8214 1.76845
1 59.5489 100.407 149.441
2 48.369 52.8803 148.956
1 51.7461 55.1069 1.34945
1 55.1233 57.3335 3.74259
1 58.5005 59.56 6.13573
1 61.8776 61.7866 8.52887
2 62.7946 101.123 144.777
1 65.0468 98.3408 147.822
1 67.2991 95.5584 0.867916
1 69.5513 92.7761 3.91359
1 71.8036 89.9938 6.95927
2 46.5157 79.8046 50.715
1 46.1483 84.345 49.5577
1 45.7809 88.8855 48.4005
1 45.4135 93.4259 47.2432
1 45.0461 97.9664 46.0859
2 17.7621 69.6179 38.9276
1 22.2883 69.3538 40.1664
1 26.8144 69.0897 41.4052
1 31.3405 68.8257 42.6439
1 35.8666 68.5616 43.8827
2 50.4701 60.2623 41.2888
1 48.4948 56.0189 41.7152
1 46.5194 51.7756 42.1416
1 44.5441 47.5322 42.5681
1 42.5687 43.2888 42.9945
2 24.3353 48.1486 55.7252
1 21.5448 50.6183 52.861
1 18.7543 53.088 49.9968
1 15.9638 55.5577 47.1326
1 13.1732 58.0274 44.2684
2 22.3579 83.8556 2.94425
1 22.8953 84.0312 7.61012
1 23.4327 84.2067 12.276
1 23.9702 84.3823 16.9419
1 24.5076 84.5578 21.6077
2 56.4003 52.2245 8.09674
1 54.9229 54.6321 11.8532
1 53.4454 57.0397 15.6096
1 51.968 59.4472 19.366
1 50.4905 61.8548 23.1225
2 3.42982 99.3268 15.327
1 2.1284 99.1206 10.8155
1 0.826972 98.9145 6.30398
1 149.526 98.7084 1.79246
1 148.224 98.5023 147.281
2 29.4215 57.1554 7.02509
1 30.5185 60.6005 10.0281
1 31.6156 64.0455 13.0311
1 32.7127 67.4906 16.034
1 33.8098 70.9357 19.037
2 21.6598 55.1362 146.808
1 20.6131 53.91 1.22243
1 19.5664 52.6837 5.63725
1 18.5197 51.4575 10.0521
1 17.473 50.2313 14.4669
2 36.6555 85.2427 146.486
1 37.5276 85.3939 1.10202
1 38.3998 85.5451 5.71791
1 39.272 85.6962 10.3338
1 40.1442 85.8474 14.9497
2 23.1549 72.8655 8.89941
1 27.1222 71.8289 6.60248
1 31.0895 70.7922 4.30555
1 35.0568 69.7555 2.00862
1 39.0241 68.7188 149.712
2 6.79287 50.1746 11.2164
1 6.41034 54.7761 10.3389
1 6.02781 59.3776 9.46135
1 5.64528 63.9791 8.58384
1 5.26274 68.5806 7.70634
2 8.75844 91.6588 48.2366
1 13.1998 93.0879 47.6691
1 17.6411 94.517 47.1015
1 22.0825 95.9461 46.5339
1 26.5238 97.3752 45.9664
2 40.9857 108.426 10.0067
1 42.3885 104.001 9.27441
1 43.7913 99.5751 8.54214
1 45.1941 95.1495 7.80988
1 46.5969 90.7239 7.07761
2 22.2051 72.4748 54.7722
1 21.2074 69.1046 51.6519
1 20.2098 65.7344 48.5316
1 19.2121 62.3642 45.4113
1 18.2145 58.994 42.291
2 10.7287 64.1251 32.2306
1 11.4752 61.9843 36.3476
1 12.2217 59.8435 40.4646
1 12.9682 57.7027 44.5816
1 13.7146 55.5619 48.6986
2 14.9562 82.3086 30.2273
1 18.833 82.2989 32.8845
1 22.7097 82.2893 35.5418
1 26.5865 82.2796 38.199
1 30.4632 82.2699 40.8562
2 4.02335 53.2526 16.7687
1 8.13134 54.8562 18.3944
1 12.2393 56.4598 20.0201
1 16.3473 58.0634 21.6458
1 20.4553 59.667 23.2715
2 15.4997 57.4485 31.3348
1 16.3997 56.9855 26.7451
1 17.2997 56.5224 22.1553
1 18.1997 56.0594 17.5656
1 19.0997 55.5963 12.9759
2 64.829 81.845 5.10923
1 60.2938 82.8784 5.78271
1 55.7585 83.9118 6.45618
1 51.2233 84.9453 7.12966
1 46.6881 85.9787 7.80314
2 57.6885 64.6273 36.411
1 61.7299 66.9298 37.0857
1 65.7714 69.2323 37.7604
1 69.8128 71.5349 38.4351
1 73.8542 73.8374 39.1098
2 39.7334 82.4177 23.1049
1 40.6639 80.3988 27.246
1 41.5945 78.3799 31.387
1 42.525 76.3611 35.5281
1 43.4556 74.3422 39.6691
2 147.324 62.511 30.8758
1 1.93511 63.3904 31.1184
1 6.54574 64.2697 31.3609
1 11.1564 65.1491 31.6035
1 15.767 66.0284 31.8461
2 47.0836 102.533 17.8146
1 51.3903 100.925 16.8369
1 55.697 99.3167 15.8593
1 60.0037 97.7085 14.8816
1 64.3104 96.1002 13.9039
2 49.3327 75.1723 62.0225
1 44.8299 76.2684 62.8057
1 40.3271 77.3644 63.5889
1 35.8243 78.4604 64.3721
1 31.3215 79.5565 65.1553
2 59.5815 43.0284 53.5207
1 62.2787 46.8579 53.1331
1 64.9759 50.6874 52.7455
1 67.6732 54.5168 52.3579
1 70.3704 58.3463 51.9703
2 1.02748 91.6885 81.2294
1 4.30078 94.5762 79.4869
1 7.57407 97.464 77.7445
1 10.8474 100.352 76.002
1 14.1207 103.24 74.2595
2 6.40118 54.9725 99.7199
1 7.81187 54.2992 95.2875
1 9.22256 53.6259 90.855
1 10.6333 52.9526 86.4226
1 12.044 52.2793 81.9901
2 0.56109 107.56 84.6155
1 0.337033 103.168 86.2745
1 0.112975 98.7766 87.9334
1 149.889 94.3848 89.5924
1 149.665 89.993 91.2514
2 1.3617 62.8259 86.8798
1 0.932368 58.6766 89.0452
1 0.503036 54.5274 91.2107
1 0.0737043 50.3781 93.3761
1 149.644 46.2288 95.5415
2 46.3757 76.2827 73.3575
1 42.7222 77.6317 75.9885
1 39.0688 78.9807 78.6196
1 35.4153 80.3297 81.2506
1 31.7619 81.6787 83.8817
2 21.7767 92.4143 61.8281
1 25.6529 94.439 63.5501
1 29.5292 96.4637 65.2722
1 33.4054 98.4884 66.9943
1 37.2816 100.513 68.7164
2 11.6424 97.1507 99.2536
1 16.2973 96.5449 99.0211
1 20.9523 95.9391 98.7886
1 25.6073 95.3333 98.5561
1 30.2623 94.7275 98.3236
2 5.4878 92.2818 61.1811
1 2.81823 95.3721 58.8544
1 0.148656 98.4623 56.5277
1 147.479 101.553 54.201
1 144.81 104.643 51.8742
2 60.7612 50.6673 57.7315
1 65.2694 51.552 56.74
1 69.7776 52.4368 55.7484
1 74.2858 53.3216 54.7568
1 78.794 54.2064 53.7653
2 46.3896 69.1001 67.3953
1 43.0056 70.6979 70.2389
1 39.6217 72.2957 73.0825
1 36.2378 73.8934 75.9261
1 32.8539 75.4912 78.7697
2 21.9721 55.3387 65.363
1 25.7227 57.1056 67.5767
1 29.4734 58.8725 69.7905
1 33.224 60.6394 72.0042
1 36.9747 62.4063 74.218
2 27.6966 51.8785 60.1973
1 32.3556 52.2783 59.7235
1 37.0145 52.678 59.2496
1 41.6734 53.0777 58.7758
1 46.3324 53.4775 58.302
2 13.4716 45.1077 59.83
1 15.2116 49.3033 58.6221
1 16.9515 53.499 57.4141
1 18.6914 57.6946 56.2062
1 20.4313 61.8903 54.9983
2 18.416 77.7316 75.6061
1 14.7349 79.9091 77.555
1 11.0539 82.0866 79.5039
1 7.37278 84.2641 81.4528
1 3.69171 86.4416 83.4017
2 53.7886 89.4286 102.345
1 51.7708 93.2283 100.453
1 49.7529 97.0279 98.5602
1 47.735 100.828 96.6678
1 45.7172 104.627 94.7755
2 14.7882 77.185 68.2481
1 12.6397 76.9672 72.4226
1 10.4913 76.7494 76.5971
1 8.34279 76.5315 80.7716
1 6.19431 76.3137 84.9461
2 41.6767 82.8217 62.5865
1 39.9402 87.0054 63.84
1 38.2038 91.1891 65.0935
1 36.4673 95.3728 66.347
1 34.7309 99.5565 67.6004
2 12.1693 89.575 78.5761
1 14.5482 91.4264 74.9702
1 16.9271 93.2779 71.3642
1 19.3059 95.1293 67.7582
1 21.6848 96.9808 64.1522
2 28.4891 92.764 57.3917
1 31.9231 94.069 54.46
1 35.357 95.374 51.5283
1 38.791 96.6791 48.5965
1 42.2249 97.9841 45.6648
2 52.2408 96.7709 104.029
1 55.8253 98.073 101.282
1 59.4097 99.3752 98.5351
1 62.9942 100.677 95.7881
1 66.5786 101.979 93.041
2 34.9026 49.7252 76.71
1 38.8725 51.4745 78.5182
1 42.8425 53.2237 80.3265
1 46.8124 54.9729 82.1348
1 50.7823 56.7221 83.943
2 60.7148 63.325 53.7637
1 62.3725 59.273 52.0538
1 64.0302 55.2211 50.3439
1 65.6878 51.1691 48.634
1 67.3455 47.1171 46.9242
2 20.7449 63.0338 70.3344
1 22.6816 61.6227 74.3777
1 24.6183 60.2117 78.421
1 26.555 58.8007 82.4643
1 28.4917 57.3897 86.5076
2 144.547 94.0045 58.5515
1 149.035 95.1089 57.6961
1 3.52212 96.2133 56.8406
1 8.0097 97.3177 55.9851
1 12.4973 98.4221 55.1296
2 33.9239 59.0759 84.0213
1 38.5262 59.9831 83.7282
1 43.1285 60.8903 83.4352
1 47.7308 61.7975 83.1422
1 52.3331 62.7048 82.8491
2 13.636 98.4912 86.1403
1 13.8581 97.4158 90.7102
1 14.0802 96.3405 95.2801
1 14.3024 95.2652 99.8501
1 14.5245 94.1899 104.42
2 9.65911 93.5585 66.3967
1 13.8956 94.739 68.0546
1 18.1321 95.9195 69.7125
1 22.3686 97.1001 71.3703
1 26.6051 98.2806 73.0282
2 9.10926 78.0629 62.5239
1 13.5488 79.6057 62.5231
1 17.9884 81.1485 62.5223
1 22.428 82.6913 62.5215
1 26.8676 84.2341 62.5207
2 40.5085 84.1786 58.2724
1 44.9071 82.5608 57.9191
1 49.3057 80.9429 57.5657
1 53.7043 79.3251 57.2124
1 58.1029 77.7072 56.859
2 29.8032 90.4702 96.9362
1 33.3072 87.3766 96.4439
1 36.8111 84.2831 95.9516
1 40.315 81.1895 95.4593
1 43.819 78.096 94.967
2 3.46459 95.2015 67.2095
1 5.96082 91.3301 68.1428
1 8.45704 87.4587 69.0762
1 10.9533 83.5873 70.0095
1 13.4495 79.7159 70.9428
2 37.6142 89.4857 85.5173
1 39.0069 92.8769 82.5763
1 40.3996 96.2682 79.6352
1 41.7923 99.6595 76.6942
1 43.185 103.051 73.7532
2 6.3787 72.723 81.8841
1 5.62341 70.7244 77.6979
1 4.86813 68.7257 73.5116
1 4.11285 66.7271 69.3253
1 3.35757 64.7285 65.139
2 18.8957 79.6697 58.0877
1 22.4583 81.788 60.3038
1 26.0209 83.9063 62.5198
1 29.5835 86.0245 64.7358
1 33.1461 88.1428 66.9518
2 44.9116 85.9119 58.6607
1 47.6577 86.7428 54.938
1 50.4039 87.5737 51.2154
1 53.15 88.4046 47.4927
1 55.8961 89.2355 43.77
2 17.6747 78.171 91.5903
1 15.4978 81.8875 93.4716
1 13.321 85.6039 95.3529
1 11.1441 89.3204 97.2342
1 8.96726 93.0369 99.1155
2 28.5514 81.7838 91.0779
1 26.2555 84.7556 88.2518
1 23.9595 87.7275 85.4258
1 21.6636 90.6993 82.5997
1 19.3676 93.6712 79.7736
2 21.6049 99.0723 73.2231
1 22.0996 95.2159 75.8638
1 22.5942 91.3595 78.5045
1 23.0889 87.503 81.1452
1 23.5836 83.6466 83.7859
2 22.766 60.3047 66.1188
1 23.8884 58.8252 61.8012
1 25.0108 57.3456 57.4837
1 26.1333 55.866 53.1662
1 27.2557 54.3865 48.8487
2 21.3319 72.9322 50.1312
1 24.1715 74.5858 53.4915
1 27.0111 76.2395 56.8519
1 29.8508 77.8931 60.2122
1 32.6904 79.5468 63.5726
2 77.2393 62.9436 149.593
1 74.7536 59.518 147.549
1 72.2679 56.0924 145.505
1 69.7822 52.6669 143.462
1 67.2965 49.2413 141.418
2 67.7369 67.7217 113.768
1 71.1586 69.7152 111.236
1 74.5803 71.7087 108.705