LAMMPS (23 Jun 2022)
OMP_NUM_THREADS environment is not set. Defaulting to 1 thread. (src/src/comm.cpp:98)
  using 1 OpenMP thread(s) per MPI task
Created orthogonal box = (0 0 0) to (150 150 150)
  2 by 3 by 3 MPI processor grid
Read molecule template lig:
  1 molecules
  0 fragments
  5 atoms with max type 2
  4 bonds with max type 1
  3 angles with max type 1
  0 dihedrals with max type 0
  0 impropers with max type 0
Created 1 atoms
  using box units in orthogonal box = (0 0 0) to (150 150 150)
  create_atoms CPU = 0.000 seconds
Created 3000 atoms
  using lattice units in orthogonal box = (0 0 0) to (150 150 150)
  create_atoms CPU = 0.003 seconds
Finding 1-2 1-3 1-4 neighbors ...
  special bond factors lj:    0        1        1       
  special bond factors coul:  0        0        0       
     2 = max # of 1-2 neighbors
     2 = max # of 1-3 neighbors
     2 = max # of 1-4 neighbors
     7 = max # of special neighbors
  special bonds CPU = 0.001 seconds
3000 atoms in group ligands
Generated 0 of 6 mixed pair_coeff terms from geometric mixing rule
Neighbor list info ...
  update every 1 steps, delay 10 steps, check yes
  max neighbors/atom: 2000, page size: 100000
  master list distance cutoff = 60
  ghost atom cutoff = 60
  binsize = 30, bins = 5 5 5
  1 neighbor lists, perpetual/occasional/extra = 1 0 0
  (1) pair lj/expand, perpetual
      attributes: half, newton on
      pair build: half/bin/newton
      stencil: half/bin/3d
      bin: standard
Setting up Verlet run ...
  Unit style    : real
  Current step  : 0
  Time step     : 30
Per MPI rank memory allocation (min/avg/max) = 8.329 | 8.352 | 8.375 Mbytes
   Step          Temp          E_pair         E_mol          TotEng         Press     
         0   0              2.9156068e+13  3.7351619e-25  2.9156068e+13  2.3694053e+12
      5000   139.496       -3423.6526      653.5332      -1522.6862     -11.552102    
     10000   139.28524     -4155.1579      634.30052     -2275.3089     -2.3280313    
Loop time of 4.76854 on 18 procs for 10000 steps with 3001 atoms

Performance: 5435.623 ns/day, 0.004 hours/ns, 2097.077 timesteps/s
99.7% CPU use with 18 MPI tasks x 1 OpenMP threads

MPI task timing breakdown:
Section |  min time  |  avg time  |  max time  |%varavg| %total
---------------------------------------------------------------
Pair    | 0.26123    | 0.57121    | 0.94109    |  20.7 | 11.98
Bond    | 0.052906   | 0.085544   | 0.11633    |   5.1 |  1.79
Neigh   | 1.8038     | 1.8114     | 1.8156     |   0.3 | 37.99
Comm    | 1.6658     | 2.1102     | 2.491      |  13.0 | 44.25
Output  | 0.0014541  | 0.0014645  | 0.0014876  |   0.0 |  0.03
Modify  | 0.077257   | 0.11756    | 0.16388    |   5.9 |  2.47
Other   |            | 0.07123    |            |       |  1.49

Nlocal:        166.722 ave         230 max         119 min
Histogram: 4 1 2 0 2 5 1 1 1 1
Nghost:        4904.22 ave        5261 max        4550 min
Histogram: 1 2 3 1 2 3 1 2 1 2
Neighs:        3199.17 ave        5165 max        1694 min
Histogram: 3 1 2 1 2 6 2 0 0 1

Total # of neighbors = 57585
Ave neighs/atom = 19.188604
Ave special neighs/atom = 3.5988004
Neighbor list builds = 909
Dangerous builds = 0
1 atoms in group nps
600 atoms in group amines
Generated 0 of 6 mixed pair_coeff terms from geometric mixing rule
Neighbor list info ...
  update every 1 steps, delay 10 steps, check yes
  max neighbors/atom: 2000, page size: 100000
  master list distance cutoff = 60
  ghost atom cutoff = 60
  binsize = 30, bins = 5 5 5
  3 neighbor lists, perpetual/occasional/extra = 1 2 0
  (1) pair lj/expand, perpetual
      attributes: half, newton on
      pair build: half/bin/newton
      stencil: half/bin/3d
      bin: standard
  (2) compute coord/atom, occasional
      attributes: full, newton on
      pair build: full/bin
      stencil: full/bin/3d
      bin: standard
  (3) compute coord/atom, occasional
      attributes: full, newton on
      pair build: full/bin
      stencil: full/bin/3d
      bin: standard
Setting up Verlet run ...
  Unit style    : real
  Current step  : 10000
  Time step     : 30
Per MPI rank memory allocation (min/avg/max) = 10.35 | 10.49 | 12.34 Mbytes
   Step          Temp          E_pair         E_mol          TotEng         Press     
     10000   139.28524     -4155.1579      634.30052     -2275.3089     -2.3280313    
     15000   297.08923     -2794.6639      1285.198       1147.2338     -5.9225335    
     20000   300.73473     -3059.4218      1274.9674      904.84492     -7.5649681    
     25000   302.52678     -3416.151       1279.2705      568.44407      10.143275    
     30000   296.75296     -3575.2195      1209.9105      288.38358      8.4205438    
     35000   302.32579     -3822.3745      1268.665       149.81784     -18.98118     
     40000   298.74055     -4053.8674      1260.5643     -121.83658     -1.2126614    
     45000   293.82899     -4140.8236      1271.7831     -241.49525     -0.1393255    
     50000   300.74129     -4249.2667      1273.6169     -286.29182     -2.0454336    
     55000   303.19458     -4322.0857      1218.8107     -391.97863     -6.2058985    
     60000   298.83206     -4498.8309      1287.5623     -538.98369      11.758651    
     65000   292.84171     -4633.7145      1265.5498     -749.44814     -16.529795    
     70000   299.49153     -4787.2505      1262.203      -846.86547     -7.9563528    
     75000   306.55825     -4765.4477      1342.1531     -681.9189       8.1630269    
     80000   300.84517     -4924.274       1303.7915     -930.19556     -18.03772     
     85000   302.97993     -5029.0249      1275.1037     -1044.5443     -1.9732714    
     90000   304.8224      -5073.9931      1284.739      -1063.4011     -7.4579724    
     95000   298.88173     -5269.4882      1235.3487     -1361.4106      12.35233     
    100000   294.67276     -5334.9112      1296.4855     -1403.3351      9.265695     
    105000   304.51179     -5473.8095      1252.5057     -1498.2284      12.649172    
    110000   309.13028     -5485.1268      1254.2014     -1466.5495      3.3363837    
    115000   295.14078     -5596.9236      1263.7161     -1693.9317      3.9741617    
    120000   298.57798     -5755.9858      1246.3009     -1839.6722     -6.090568     
    125000   297.68941     -5865.6757      1277.4021     -1926.2069     -6.7936696    
    130000   295.92642     -5972.8692      1273.7126     -2052.8552      14.317146    
    135000   302.29341     -6179.5053      1271.3283     -2204.9393     -12.669694    
    140000   302.40928     -6185.6507      1236.9245     -2244.4524      8.9903172    
    145000   303.46372     -6231.428       1244.3955     -2273.3294     -5.7297227    
    150000   305.59111     -6436.0573      1243.8275     -2459.5026      10.009664    
    155000   300.63003     -6350.6127      1212.538      -2449.7117     -12.109565    
    160000   305.15971     -6433.7838      1248.5761     -2456.3384     -4.3669383    
    165000   299.48285     -6502.468       1205.0082     -2619.3554      18.924605    
    170000   299.38094     -6516.2891      1258.3698     -2580.7262     -19.287541    
    175000   308.10214     -6570.7628      1245.7185     -2569.8624      19.481934    
    180000   292.43333     -6542.2946      1241.4667     -2685.7632     -10.39544     
    185000   296.62978     -6647.055       1285.6832     -2708.7808     -20.385984    
    190000   307.74819     -6729.798       1204.3787     -2773.4027      3.3148066    
    195000   302.72257     -6622.7229      1243.7557     -2671.8918     -8.4589719    
    200000   296.84282     -6810.693       1228.1449     -2928.052      -15.143079    
    205000   304.61114     -6797.5511      1249.3199     -2824.2673     -10.52062     
    210000   291.46455     -6804.8882      1236.2449     -2962.2419      5.7527513    
    215000   303.42144     -6767.8393      1241.1474     -2813.3668      24.030314    
    220000   302.63461     -6771.3844      1217.0566     -2848.039      -13.263598    
    225000   304.57136     -6820.7213      1217.9126     -2879.2007     -13.954373    
    230000   295.34103     -6751.2583      1241.0984     -2869.0934     -5.9708479    
    235000   298.45732     -6717.0191      1210.225      -2837.8604     -26.558694    
    240000   297.52565     -6703.4546      1249.7199     -2793.1324      33.573093    
    245000   296.49624     -6713.4371      1205.8647     -2856.1754      20.159223    
    250000   299.48657     -6818.5786      1247.4539     -2892.9869     -19.472454    
    255000   302.22285     -6805.7417      1192.4217     -2910.7133     -8.4159535    
    260000   298.91457     -6731.841       1257.2398     -2801.5784     -9.0208129    
    265000   296.10944     -6822.4287      1179.8594     -2994.6314      0.7248593    
    270000   293.70382     -6801.9574      1242.5525     -2932.9789     -4.2634553    
    275000   301.09033     -6959.8256      1215.4718     -3051.8745      17.661551    
    280000   300.24103     -6908.3288      1204.3652     -3019.0791      0.65441558   
    285000   298.84821     -6825.257       1274.2023     -2878.6254      17.46472     
    290000   295.02857     -6850.1574      1247.8252     -2964.0598     -9.0473971    
    295000   299.36671     -6849.1547      1193.5022     -2978.5867      2.9605423    
    300000   298.86524     -6811.5366      1223.1276     -2915.8274     -13.470425    
    305000   299.40839     -6855.8168      1172.827      -3005.5511     -1.1116373    
    310000   293.63516     -6824.1262      1186.3321     -3011.9822      9.9014983    
    315000   301.58096     -6886.2981      1231.9373     -2957.4941     -3.7103386    
    320000   303.11992     -6876.8858      1212.7121     -2953.545       0.12093899   
    325000   294.15647     -6870.8008      1275.962      -2964.3651     -3.2866971    
    330000   302.81676     -6900.8627      1233.1805     -2959.7644      10.538885    
    335000   303.21746     -6957.7283      1226.4464     -3019.781      -26.845625    
    340000   297.34199     -6844.6587      1216.9503     -2968.7484      2.617716     
    345000   300.81044     -6920.7882      1213.4574     -3017.3544      15.617962    
    350000   304.36458     -6934.8909      1200.8699     -3012.2619     -28.624945    
    355000   298.25111     -6890.1394      1241.7385     -2981.3111     -0.18267854   
    360000   301.5845      -6948.3723      1186.2177     -3065.2563      2.0525836    
    365000   300.203       -6900.3346      1239.1674     -2976.6228     -5.0540348    
    370000   307.34565     -6932.598       1165.979      -3018.2019     -0.24488264   
    375000   301.70623     -6916.6824      1218.1783     -3000.5172     -17.637599    
    380000   304.79156     -6940.9349      1235.7931     -2979.5646      11.750843    
    385000   298.81359     -6911.2097      1231.7087     -3007.3814      1.3898353    
    390000   299.30454     -6890.4092      1219.4166     -2994.4827      9.5746711    
    395000   299.87591     -6920.7121      1280.7962     -2958.2965      5.9133745    
    400000   300.33079     -6864.4307      1160.4812     -3018.2624      1.9633311    
    405000   299.78867     -6901.5476      1216.0392     -3004.6692     -12.31438     
    410000   299.51922     -6873.7082      1201.1719     -2994.1066     -20.560649    
    415000   303.30652     -6911.6764      1194.5684     -3004.8106      7.1811682    
    420000   303.71154     -6906.7285      1192.27       -2998.5393      7.9781498    
    425000   294.09048     -7005.0285      1196.5451     -3178.5999      29.183323    
    430000   293.69299     -6993.8252      1176.2506     -3191.2456      2.1416832    
    435000   294.06932     -6812.4844      1203.03       -2979.76       -12.365614    
    440000   295.56528     -6811.2227      1266.2765     -2901.8743     -23.545615    
    445000   294.21921     -6921.5364      1203.133      -3087.3687      11.181538    
    450000   293.40971     -6880.02        1223.659      -3032.5652      19.106099    
    455000   307.82281     -6887.7955      1218.3875     -2916.7241     -6.8007642    
    460000   306.89367     -6906.8919      1255.1857     -2907.331      -15.630766    
    465000   303.95582     -6852.7621      1243.789      -2890.8695      17.046015    
    470000   300.33636     -6841.665       1218.4922     -2937.4359      7.5111288    
    475000   301.02959     -6859.8296      1262.8688     -2905.0247      6.0231611    
    480000   305.27229     -6896.7428      1228.9737     -2937.893      -14.677       
    485000   296.19216     -6766.8048      1206.237      -2911.8901      0.36498663   
    490000   298.27591     -6784.9647      1223.5197     -2894.1335      16.893281    
    495000   303.56192     -6856.3936      1221.5109     -2920.3015      14.814475    
    500000   300.04827     -6939.2225      1238.6405     -3017.4213     -20.264709    
    505000   298.11835     -6898.3324      1192.7472     -3039.6827     -22.708031    
    510000   297.06333     -6912.8559      1221.6375     -3034.7504      11.757503    
    515000   303.74803     -6917.5099      1200.0689     -3001.1955      0.35779529   
    520000   301.02276     -6803.7421      1219.2693     -2892.5978      1.4785332    
    525000   299.60504     -6916.1297      1184.5522     -3052.3804     -24.465973    
    530000   300.90766     -6977.9536      1206.4627     -3080.6452      2.9641986    
    535000   296.59684     -6929.2261      1187.0577     -3089.8719      0.57483093   
    540000   300.91441     -6916.6958      1252.9602     -2972.8296     -2.4576961    
    545000   300.71414     -6885.392       1248.3885     -2947.8883     -16.412061    
    550000   297.2814      -6918.0543      1194.9429     -3064.6932      4.4987529    
    555000   307.55085     -6936.1379      1200.4966     -2985.3893     -21.000746    
    560000   299.34342     -6915.5329      1160.8679     -3077.8073      7.4829724    
    565000   305.33991     -6850.4037      1187.9845     -2931.9384     -23.219771    
    570000   294.6333      -6939.5535      1243.8028     -3061.0129      6.4355066    
    575000   300.12106     -6796.6566      1249.2401     -2863.6049      0.57250974   
    580000   295.17223     -6901.4828      1228.2187     -3033.7069     -17.857035    
    585000   298.83953     -6867.0512      1199.5644     -2995.1351      3.1163882    
    590000   298.9172      -6858.2753      1176.9847     -3008.2444      15.427183    
    595000   289.08159     -6881.8828      1245.3854     -3051.4055     -27.531969    
    600000   299.7873      -6918.4061      1222.5987     -3014.9805     -20.701505    
    605000   298.44335     -6871.4603      1217.9828     -2984.6687      12.068585    
    610000   301.22175     -6864.8165      1254.7804     -2916.3816     -11.324826    
    615000   296.77596     -6853.0221      1209.5146     -2989.6093     -26.138992    
    620000   300.77373     -6898.5499      1231.2654     -2977.6365     -9.7901815    
    625000   297.08565     -6840.3187      1278.8493     -2904.8016     -15.463324    
    630000   298.32545     -6875.617       1253.4056     -2954.4569      8.9156364    
    635000   296.26974     -6785.6288      1267.7481     -2868.5093     -22.82123     
    640000   295.28452     -6805.4245      1255.2907     -2909.5725     -2.6790742    
    645000   293.23155     -6760.2827      1291.9349     -2846.1451     -13.192774    
    650000   299.31969     -6935.1507      1245.1087     -3013.3966      9.6088094    
    655000   302.27145     -6831.2921      1210.2265     -2918.0243     -11.249805    
    660000   300.31909     -6907.9294      1221.9787     -3000.3682      7.9371676    
    665000   296.03326     -6998.3198      1185.8803     -3165.1828     -3.7168768    
    670000   297.95849     -6879.9483      1218.2755     -2997.1998     -23.838201    
    675000   305.92963     -6926.943       1221.6425     -2969.5461      7.7424135    
    680000   294.16442     -6973.4124      1154.8592     -3188.0084      7.9878941    
    685000   303.53273     -6924.3255      1203.2592     -3006.7461     -5.128507     
    690000   302.88323     -6942.3748      1178.1737     -3055.6889      2.9246875    
    695000   303.20131     -6800.7078      1264.7305     -2824.6207     -8.4318997    
    700000   297.84418     -6900.2838      1216.2183     -3020.6147     -22.082931    
    705000   299.59573     -6942.0448      1169.1579     -3093.773       5.562706     
    710000   309.17706     -6852.6809      1259.2414     -2828.6452     -14.398784    
    715000   292.27697     -6821.3905      1232.4509     -2975.2732     -2.6924545    
    720000   299.55175     -6795.5882      1234.6983     -2882.1693      25.486776    
    725000   300.12992     -6862.0457      1275.4244     -2902.7305      9.5655404    
    730000   307.0806      -6820.6836      1235.8786     -2838.7582     -6.2746287    
    735000   292.24386     -6832.5356      1189.7653     -3029.4         6.7370423    
    740000   300.67841     -6814.8591      1220.3043     -2905.7591      12.027913    
    745000   302.65026     -6880.2463      1225.6838     -2948.1337      5.8035736    
    750000   299.0256      -6836.8809      1205.5389     -2957.3264      14.044062    
    755000   301.32192     -6859.5243      1268.739      -2896.2351      8.3558651    
    760000   293.47582     -6876.2035      1255.7384     -2996.078       7.5159601    
    765000   301.18967     -6937.2691      1222.2478     -3021.6537      3.1465338    
    770000   294.97786     -6919.0236      1165.8721     -3115.3326     -16.168433    
    775000   288.94645     -6882.5808      1236.5995     -3062.0979     -5.3187513    
    780000   301.81422     -6939.0483      1247.3385     -2992.7572     -20.780113    
    785000   299.18114     -6852.1691      1184.5459     -2992.2168     -26.165416    
    790000   300.25894     -6995.9931      1257.7894     -3053.1592     -3.425028     
    795000   299.45794     -6901.0007      1201.3295     -3021.7896      13.995199    
    800000   304.81361     -6899.2708      1252.6119     -2920.8845      16.038802    
    805000   301.94624     -6887.9584      1248.4713     -2939.354       3.2469953    
    810000   304.16376     -6860.4741      1227.9045     -2912.6064      2.3387941    
    815000   298.09138     -6913.1177      1225.3063     -3022.15       -6.3606493    
    820000   301.42662     -6927.3961      1160.7845     -3071.1251     -4.5968595    
    825000   294.23657     -6867.3432      1213.3169     -3022.8363     -3.7103865    
    830000   300.70352     -6991.7057      1188.7459     -3113.9395     -20.329832    
    835000   297.02365     -6960.6222      1243.7655     -3060.7434      13.549581    
    840000   298.64806     -6815.7059      1152.377      -2992.6895      13.351891    
    845000   294.70363     -6954.6499      1221.1849     -3098.0983     -4.2815765    
    850000   292.76685     -7026.4589      1229.7622     -3178.6495     -11.280852    
    855000   298.50027     -6945.0653      1247.3002     -3028.4474      31.127665    
    860000   300.20193     -6863.1784      1202.2629     -2976.3808      9.398475     
    865000   297.32064     -6791.9515      1223.6824     -2909.5         12.615238    
    870000   292.49456     -6794.1077      1191.1984     -2987.2971      0.64538318   
    875000   302.45448     -6783.726       1223.605      -2855.443       6.3700472    
    880000   303.86797     -6833.766       1219.0899     -2897.358      -10.751565    
    885000   303.26227     -6862.057       1197.5048     -2952.6506     -5.4070781    
    890000   298.46282     -6866.4607      1192.2232     -3005.2546     -10.199298    
    895000   295.58384     -6873.6657      1201.6217     -3028.8062      37.133954    
    900000   299.49809     -6940.8233      1215.7185     -3046.8641     -5.184756     
    905000   296.50867     -6833.448       1212.3646     -2969.5754     -3.1217311    
    910000   299.9205      -6938.576       1235.0866     -3021.4713      14.310834    
    915000   307.12547     -6923.3762      1228.5431     -2948.385      -23.753911    
    920000   293.56486     -6943.5396      1195.4482     -3122.9082     -11.559924    
    925000   302.94476     -6936.7097      1148.4804     -3079.167       40.6799      
    930000   298.45703     -6937.9051      1218.0415     -3050.9324      0.69922171   
    935000   301.22542     -6964.108       1243.9078     -3026.513      -1.2944104    
    940000   302.40899     -6906.739       1254.1694     -2948.2983      24.484521    
    945000   294.54335     -6814.6946      1208.8504     -2971.9108      23.347907    
    950000   302.18781     -6937.3511      1192.2316     -3042.8262     -5.7951258    
    955000   301.89316     -6864.1823      1230.9897     -2933.5341     -22.596661    
    960000   300.35387     -6862.1788      1175.449      -3000.8364      7.4477462    
    965000   306.84312     -6876.6226      1225.5869     -2907.1125      10.624712    
    970000   302.40378     -6872.0724      1214.3343     -2953.5135     -12.614473    
    975000   297.89996     -6947.9909      1200.2894     -3083.752      -32.929672    
    980000   304.73968     -6896.6042      1214.2202     -2957.2707     -14.098068    
    985000   311.03322     -6993.7508      1196.935      -3015.423      -11.330183    
    990000   301.51772     -6823.4642      1281.8503     -2845.3127     -6.2432573    
    995000   293.94339     -6878.7552      1255.7658     -2994.4213     -2.24519      
   1000000   304.36137     -6814.8485      1219.7167     -2873.4015      15.802779    
   1005000   305.27662     -6874.7242      1219.5313     -2925.2781      6.262332     
   1010000   288.31447     -6933.1811      1230.4707     -3124.4784      16.991798    
   1015000   299.04304     -6814.002       1221.5548     -2918.2757      16.284947    
   1020000   304.19906     -6932.519       1215.3979     -2996.8423     -7.65781      
   1025000   302.65227     -6973.5738      1205.6339     -3061.4931     -1.4298851    
   1030000   303.1114      -6917.4511      1235.5866     -2971.312       3.805011     
   1035000   300.56294     -6923.1248      1200.9598     -3034.4019     -23.654028    
   1040000   303.99393     -6842.9412      1243.5794     -2880.9173      17.921968    
   1045000   296.34361     -6899.1186      1201.4501     -3047.6364     -2.1970635    
   1050000   298.61936     -6928.2178      1228.73       -3029.105       27.438808    
   1055000   304.18117     -6884.2582      1207.9278     -2956.2116     -7.0015907    
   1060000   302.85514     -6903.9172      1276.9225     -2918.7338     -21.925444    
   1065000   307.39934     -6802.1036      1232.0098     -2821.1967     -5.1746539    
   1070000   296.09127     -6899.22        1203.1869     -3048.2576      8.4596675    
   1075000   292.53151     -6814.6897      1269.0974     -2929.6497      35.185691    
   1080000   303.77568     -6806.2002      1196.2733     -2893.4341     -14.820175    
   1085000   304.98462     -6849.3005      1201.8294     -2920.1674      8.310884     
   1090000   303.38467     -6834.9033      1245.145      -2876.7622      6.9027243    
   1095000   303.79018     -6912.7174      1225.8222     -2970.2728      22.444445    
   1100000   296.96332     -6885.4846      1201.4555     -3028.4554     -21.792498    
   1105000   306.92792     -6942.7002      1245.1603     -2952.8584      20.042712    
   1110000   297.87685     -6860.0491      1239.4151     -2956.8911      17.532401    
   1115000   298.29337     -6865.9377      1214.5001     -2983.97       -20.041872    
   1120000   302.32344     -6870.9759      1221.1501     -2946.3196     -13.158602    
   1125000   299.84363     -6881.1203      1187.2751     -3012.5144      13.379638    
   1130000   308.69929     -6892.4995      1227.797      -2904.1808     -10.616104    
   1135000   301.1135      -6792.9766      1217.0731     -2883.217      -18.95143     
   1140000   294.90069     -6900.4221      1221.2689     -3042.0244     -6.2682835    
   1145000   298.72128     -6848.9374      1217.2284     -2960.4149     -7.2580566    
   1150000   302.49742     -6910.9378      1229.0616     -2976.8142      5.9036772    
   1155000   303.07548     -6893.7856      1218.9784     -2964.5759     -21.836652    
   1160000   298.38016     -6960.7448      1212.4991     -3080.0019      4.6766215    
   1165000   308.50079     -6864.3302      1167.4414     -2938.142      -3.8934855    
   1170000   301.97791     -6963.6493      1240.4731     -3022.7599      20.478238    
   1175000   299.9704      -6850.2543      1195.7017     -2972.0882      11.919302    
   1180000   297.39216     -6919.046       1218.6448     -3040.9927     -7.7125362    
   1185000   298.55342     -6962.7977      1197.6403     -3095.3643      4.8630355    
   1190000   309.47766     -6895.2531      1164.6049     -2963.1658      33.629171    
   1195000   300.98127     -6849.6172      1206.9618     -2951.1513     -13.185105    
   1200000   290.4674      -6932.0977      1235.4321     -3099.1812     -26.239075    
   1205000   305.94127     -6988.9459      1155.4725     -3097.615      -12.240444    
   1210000   299.33208     -6958.1517      1219.9156     -3061.4799      1.2697984    
   1215000   294.05071     -6951.6115      1191.1682     -3130.9155     -8.5706947    
   1220000   303.79562     -6997.5985      1207.0619     -3073.8655     -17.549894    
   1225000   304.91752     -6985.9276      1227.4462     -3031.7778      14.381087    
   1230000   300.29507     -6879.4662      1209.1125     -2984.9861     -8.7432154    
   1235000   302.58357     -6856.7053      1165.4192     -2985.4536     -9.684484     
   1240000   302.33271     -7022.4213      1205.3751     -3113.457      -6.2402262    
   1245000   303.47471     -6865.9782      1191.7642     -2960.4126     -8.0002353    
   1250000   292.82197     -6884.3354      1169.0523     -3096.743      -7.4778325    
   1255000   299.81733     -6955.5319      1191.5906     -3082.8458     -9.0601451    
   1260000   296.97646     -6909.6966      1269.4143     -2984.591      -6.3685704    
   1265000   300.21661     -6839.5935      1181.5436     -2973.3838     -21.994646    
   1270000   302.67157     -6940.3685      1232.0352     -3001.714      -11.392516    
   1275000   297.11377     -7012.7988      1209.583      -3146.2967      4.816779     
   1280000   293.61771     -7048.0035      1234.3085     -3188.0392      9.2706687    
   1285000   298.13998     -6976.3375      1233.605      -3076.6366     -6.8300896    
   1290000   312.09231     -7040.0556      1194.8144     -3054.3775      1.4838415    
   1295000   300.24232     -6968.9451      1208.5704     -3075.4787     -1.5347312    
   1300000   302.33526     -6862.3968      1229.0905     -2929.6944      6.7660597    
   1305000   298.25597     -6972.5114      1233.7898     -3071.5884      5.4015846    
   1310000   294.39105     -6841.1578      1214.8205     -2993.766       31.815908    
   1315000   290.9697      -6911.9838      1199.9583     -3110.0492     -27.168427    
   1320000   308.50887     -6851.7516      1237.8238     -2855.1087     -2.1759483    
   1325000   305.39504     -6868.6099      1174.9608     -2962.6753      5.3882902    
   1330000   297.91363     -6905.4067      1211.5849     -3029.7499      3.6058798    
   1335000   293.48556     -6935.1735      1188.7785     -3121.9209     -1.4351143    
   1340000   298.26996     -6894.4711      1204.0234     -3023.1893      11.272045    
   1345000   300.28434     -6917.7385      1205.9806     -3026.4862      11.708509    
   1350000   297.2483      -6999.5707      1215.3839     -3126.0646     -0.40239483   
   1355000   302.06419     -6896.5849      1213.8023     -2981.5947      1.4471152    
   1360000   289.62669     -6926.904       1271.0211     -3065.9164      0.67614552   
   1365000   303.82954     -6989.6193      1205.7527     -3066.8922     -1.2256195    
   1370000   303.69559     -6842.8459      1206.1694     -2920.8999      8.1741322    
   1375000   297.60378     -6888.1164      1209.3667     -3017.4486      8.483321     
   1380000   292.78449     -6819.662       1231.7642     -2969.693      -25.887593    
   1385000   300.04141     -6882.3261      1212.1153     -2987.1115      16.235731    
   1390000   301.06122     -6860.9218      1204.765      -2963.9379      5.3461313    
   1395000   298.6733      -6916.3872      1227.4595     -3018.0627      43.04465     
   1400000   299.57796     -6953.5769      1227.1844     -3047.4375     -7.281535     
   1405000   298.32678     -6897.0723      1230.1196     -2999.1862     -16.590173    
   1410000   303.76681     -6925.9323      1164.9631     -3044.5556      25.35954     
   1415000   296.49381     -6979.1438      1207.8274     -3119.9412      12.29925     
   1420000   300.42891     -6986.897       1186.9086     -3113.4238      20.526676    
   1425000   302.75069     -6924.8182      1170.277      -3047.2144     -15.332386    
   1430000   306.03127     -6914.6501      1265.3141     -2912.6727      12.12175     
   1435000   298.92683     -6873.1161      1201.3615     -2998.6223     -30.362439    
   1440000   309.54524     -6957.4105      1188.9299     -3000.3939     -5.2817401    
   1445000   293.98306     -6951.9184      1218.8781     -3104.1173     -19.840122    
   1450000   298.36079     -6890.8026      1302.8281     -2919.9041     -12.571258    
   1455000   294.29329     -6962.8978      1216.4365     -3114.7641      33.467379    
   1460000   299.33742     -6919.5922      1221.0528     -3021.7354     -2.5948073    
   1465000   298.00827     -6889.0317      1288.9224     -2935.1911     -3.5145341    
   1470000   300.94279     -6887.5067      1221.4753     -2974.8716     -4.2112888    
   1475000   300.0792      -6958.2529      1219.443      -3055.3726      9.8754305    
   1480000   301.2819      -6982.0438      1185.1783     -3102.6732     -25.35398     
   1485000   297.68941     -6904.9984      1204.1047     -3038.8269     -14.987013    
   1490000   305.98423     -7019.1356      1216.8348     -3066.0582      18.161075    
   1495000   290.90154     -6870.9984      1267.2089     -3002.4228     -3.3299121    
   1500000   299.40088     -6934.491       1211.6522     -3045.4673     -7.1334644    
   1505000   310.00894     -6967.0119      1273.4184     -2921.3602      6.7521063    
   1510000   300.29717     -6899.2421      1187.1936     -3026.662      -4.1869604    
   1515000   301.21559     -6926.4171      1199.35       -3033.4677     -24.65981     
   1520000   302.61069     -6837.1868      1184.5817     -2946.5301      0.45944749   
   1525000   312.4597      -6955.6133      1227.082      -2934.3822      16.18412     
   1530000   302.72509     -6895.8641      1184.4329     -3004.3332     -15.941872    
   1535000   302.10313     -6999.071       1279.196      -3018.3389     -27.035902    
   1540000   294.71218     -6922.8655      1250.9807     -3036.4418      0.61814042   
   1545000   294.99118     -6980.6868      1263.4593     -3079.2895     -9.0153378    
   1550000   311.74317     -6910.0547      1153.0173     -2969.2958      21.288302    
   1555000   303.96519     -6945.9486      1227.9758     -2999.7853     -11.331763    
   1560000   299.57955     -6930.9335      1193.5687     -3058.3956      12.303749    
   1565000   312.75252     -6929.4969      1220.5094     -2912.2199     -7.2840664    
   1570000   299.06392     -6895.2156      1230.2024     -2990.655      -7.1222142    
   1575000   300.6669      -6900.789       1225.2017     -2986.8946      26.203105    
   1580000   301.6157      -6834.4634      1228.4236     -2908.8624     -10.919317    
   1585000   308.96588     -6885.0855      1202.8752     -2919.3044      8.8942259    
   1590000   296.7467      -6856.6866      1235.6546     -2967.3954     -15.168833    
   1595000   292.46763     -6825.1102      1221.4897     -2988.2491      7.5073099    
   1600000   310.38366     -6926.1099      1219.8301     -2930.6956      2.875155     
   1605000   295.0925      -6924.6041      1185.1094     -3100.6506     -7.4536727    
   1610000   296.76671     -6870.593       1230.2381     -2986.5392      18.12897     
   1615000   294.74582     -6942.3244      1208.1734     -3098.4071      18.511169    
   1620000   298.2838      -6941.9611      1232.7734     -3041.8056      12.721998    
   1625000   297.57578     -6899.5338      1254.391      -2984.092       1.9191468    
   1630000   304.38447     -6828.1367      1185.8348     -2920.365       3.3543305    
   1635000   310.29811     -6897.4003      1249.0255     -2873.5556     -12.021856    
   1640000   298.08787     -6999.1694      1204.058      -3129.4814      15.944973    
   1645000   298.74867     -6902.506       1218.3086     -3012.6583     -8.3976361    
   1650000   296.54256     -6977.2236      1217.2874     -3108.125       1.793278     
   1655000   297.91611     -6946.5551      1220.3719     -3062.0892     -0.68575398   
   1660000   291.57595     -6957.1265      1245.526      -3104.203      -0.63519792   
   1665000   301.53846     -6893.4308      1209.2812     -2987.6631     -1.7544343    
   1670000   294.10252     -6849.0894      1239.4537     -2979.6445      19.390643    
   1675000   302.1973      -6762.5951      1189.177      -2871.0398     -5.1945958    
   1680000   302.12693     -6805.1962      1246.4017     -2857.0455     -4.1027733    
   1685000   303.15774     -6823.3329      1237.7884     -2874.5776     -17.170037    
   1690000   298.02329     -6831.0851      1262.9502     -2903.0824     -17.307639    
   1695000   306.39176     -6885.9321      1188.8966     -2957.1485      24.057735    
   1700000   298.44361     -6906.019       1215.7349     -3021.473       15.456256    
   1705000   298.35286     -6938.2369      1244.2672     -3025.97        3.7463676    
   1710000   296.98945     -6880.3085      1268.4742     -2956.0269     -17.593389    
   1715000   302.25278     -6807.468       1268.644      -2835.9496     -17.095351    
   1720000   298.09628     -6966.8708      1216.6389     -3084.5267     -3.0845187    
   1725000   301.58391     -6908.0373      1205.2598     -3005.8844      13.547887    
   1730000   299.29773     -6944.2976      1251.2717     -3016.5769     -8.2796929    
   1735000   306.29301     -6955.1939      1196.1067     -3020.0834     -11.017537    
   1740000   311.54999     -7025.9378      1230.6826     -3009.2413     -22.111694    
   1745000   295.58712     -6926.2143      1200.5548     -3082.3923     -16.289429    
   1750000   302.98034     -6899.8658      1180.7606     -3009.7246      7.9750593    
   1755000   302.59187     -6974.1331      1210.7717     -3057.4548     -6.3476778    
   1760000   302.59551     -6964.4667      1249.2276     -3009.2999     -20.479862    
   1765000   292.88521     -6938.4804      1210.6601     -3108.7147      8.7139182    
   1770000   294.42279     -6883.0757      1219.6042     -3030.6162     -3.2316689    
   1775000   292.83293     -6921.5039      1239.5318     -3063.3341      3.1051904    
   1780000   300.32491     -6889.9382      1244.3326     -2959.9711     -2.4289365    
   1785000   302.82405     -7009.9802      1190.6079     -3111.3894     -10.145749    
   1790000   294.23599     -6986.6588      1211.4865     -3143.9876     -4.256194     
   1795000   308.13534     -6937.0084      1227.5857     -2953.9439     -19.530223    
   1800000   305.1121      -6987.5265      1209.5346     -3049.5482      9.3141321    
   1805000   302.73322     -6985.2713      1213.5076     -3064.593      -16.899148    
   1810000   304.53397     -7023.3614      1250.2633     -3049.8243     -18.109078    
   1815000   301.18356     -6959.6206      1184.8679     -3081.4397      29.090622    
   1820000   299.94019     -6971.6405      1224.5597     -3064.8866      3.916804     
   1825000   295.43817     -7049.7295      1229.7567     -3178.0377      8.0710582    
   1830000   296.35237     -7011.8484      1243.8554     -3117.8826      19.079473    
   1835000   303.351       -6920.8033      1229.834      -2978.2742     -17.736969    
   1840000   307.95615     -6889.5988      1277.6199     -2858.1025      1.0362376    
   1845000   302.46787     -6912.3496      1236.6578     -2970.894      -14.270089    
   1850000   297.05539     -6946.9689      1157.96       -3132.6118      1.5073222    
   1855000   301.58117     -6842.599       1216.2091     -2929.5213      10.498668    
   1860000   298.20232     -6903.1041      1241.3803     -2995.0704      18.666793    
   1865000   299.50403     -6952.3976      1228.6098     -3045.494      -3.0228913    
   1870000   293.63885     -6921.9527      1234.6575     -3061.4502     -1.7388688    
   1875000   294.40857     -6923.601       1240.6148     -3050.2582     -10.387936    
   1880000   301.68911     -6992.669       1236.948      -3057.8873      10.400157    
   1885000   293.41756     -6903.2784      1220.5338     -3058.8787     -3.2979101    
   1890000   303.2685      -6908.0513      1232.537      -2963.557       17.558071    
   1895000   299.87498     -6964.9944      1168.3264     -3115.057       16.258101    
   1900000   302.94547     -7011.5957      1181.3849     -3121.142       11.778593    
   1905000   297.33583     -7027.9328      1223.9499     -3145.078       4.6788149    
   1910000   295.35552     -6949.0369      1230.0362     -3077.8046     -5.0683903    
   1915000   295.07367     -6934.9383      1251.5281     -3044.7346     -0.059509165  
   1920000   298.78546     -6917.1786      1233.1433     -3012.1671     -20.25811     
   1925000   296.6919      -6952.7358      1198.4836     -3101.1055      2.1118439    
   1930000   291.30147     -6952.0613      1208.5269     -3138.5914      5.293126     
   1935000   299.05458     -6974.2161      1222.5464     -3077.395       10.867934    
   1940000   303.6261      -6883.6431      1182.2037     -2986.2842      13.42569     
   1945000   290.35192     -6878.6142      1209.7088     -3072.4536     -5.69486      
   1950000   301.19157     -6920.1165      1260.5982     -2966.1337     -1.7559935    
   1955000   299.86499     -6871.3755      1208.7578     -2981.096      -0.096356603  
   1960000   304.0878      -6908.3857      1218.0764     -2971.0254     -22.361125    
   1965000   288.9972      -6944.7153      1170.717      -3189.6611     -8.0717105    
   1970000   297.48567     -7004.8721      1253.2523     -3091.3751      4.6677681    
   1975000   302.80319     -6971.7983      1221.7678     -3042.2341      12.843133    
   1980000   300.77399     -7004.8247      1234.0188     -3081.1555     -7.1927864    
   1985000   306.68322     -6914.2309      1198.9025     -2972.8351      1.299888     
   1990000   309.47235     -6845.4987      1250.785      -2827.2788     -3.8801949    
   1995000   295.88449     -6890.9774      1225.0137     -3020.0373      21.228824    
   2000000   301.08268     -6954.258       1239.303      -3022.5442      15.212441    
   2005000   298.52369     -6946.5981      1241.8576     -3035.2133     -13.195914    
   2010000   290.93648     -7023.0688      1196.8158     -3224.5738     -23.448659    
   2015000   298.4644      -6892.0664      1178.8665     -3044.2029     -17.328407    
   2020000   298.66576     -6904.4291      1238.7583     -2994.8731     -11.6639      
   2025000   303.33485     -6902.3335      1210.3246     -2979.4582     -19.592762    
   2030000   295.39599     -6959.5085      1224.6531     -3093.2974      5.7443728    
   2035000   296.95757     -6900.8222      1239.2587     -3006.0412      1.8094723    
   2040000   294.60172     -6902.4451      1246.6236     -3021.3662     -6.8933745    
   2045000   292.56565     -6970.3895      1218.1538     -3135.9878      23.847696    
   2050000   302.83276     -6923.6426      1260.8672     -2954.7146      6.6387912    
   2055000   297.41847     -7065.2141      1216.0098     -3189.5605      10.109056    
   2060000   297.97661     -6961.8609      1246.7383     -3050.4876     -2.5055577    
   2065000   306.70579     -6991.6245      1228.0686     -3020.8607      28.206363    
   2070000   298.78091     -7006.044       1211.8333     -3122.3834     -9.756852     
   2075000   296.46241     -7020.6492      1192.0058     -3177.5491      2.7687695    
   2080000   303.86816     -6948.144       1275.4939     -2955.3302     -15.519022    
   2085000   299.80112     -7004.3119      1214.3475     -3109.0138     -7.3162336    
   2090000   303.48        -6969.5316      1187.927      -3067.756      -2.3074925    
   2095000   305.80591     -6998.884       1217.3605     -3046.8755     -6.9907324    
   2100000   307.14845     -6982.0682      1260.5014     -2974.9132      1.4581134    
   2105000   296.10928     -6970.4554      1249.4846     -3073.0343     -24.702659    
   2110000   304.85792     -7057.09        1200.3248     -3130.5946      26.873455    
   2115000   299.45719     -7007.402       1199.8261     -3129.7009      19.637704    
   2120000   291.96725     -6861.4056      1176.704      -3073.8048     -22.085735    
   2125000   296.69629     -6932.5594      1201.4866     -3077.8869      8.7248245    
   2130000   297.94627     -6931.3998      1220.9317     -3046.1043     -4.2236271    
   2135000   299.25488     -6984.8347      1223.972      -3084.7969     -7.5842382    
   2140000   301.81361     -7038.5866      1206.4209     -3133.2186      30.409242    
   2145000   306.768       -7007.1437      1205.6836     -3058.2087      25.614176    
   2150000   307.46827     -6884.6038      1253.5142     -2881.576       0.15106719   
   2155000   300.94224     -7028.1293      1190.617      -3146.3574     -5.1833845    
   2160000   292.45315     -7094.8509      1276.6035     -3203.0055      9.7928896    
   2165000   299.94629     -6979.5594      1207.7163     -3089.5943     -2.9842044    
   2170000   296.94724     -7084.4541      1228.5169     -3200.5072      7.2120515    
   2175000   293.77842     -7028.5744      1158.1281     -3243.3533     -4.8815767    
   2180000   299.42815     -6983.7596      1192.9889     -3113.1554      13.790834    
   2185000   303.95566     -6842.6214      1191.0297     -2933.4894      10.844746    
   2190000   308.68311     -6917.4617      1224.0878     -2932.9968      17.218618    
   2195000   295.33704     -6886.5013      1200.5668     -3044.9037      12.771152    
   2200000   303.4713      -6993.5898      1170.3064     -3109.5125      16.237271    
   2205000   292.62323     -7001.1283      1265.9381     -3118.4275     -3.4895242    
   2210000   298.62505     -7006.7693      1237.3836     -3098.952       10.537617    
   2215000   300.989       -7065.8855      1251.4368     -3122.8757     -13.79009     
   2220000   297.39103     -6913.0763      1212.1503     -3041.5276      3.1966248    
   2225000   297.592       -7005.7511      1195.7895     -3148.7659     -6.5472799    
   2230000   300.23304     -6928.1459      1184.4883     -3058.8446     -17.345605    
   2235000   291.97448     -7005.8967      1231.3112     -3163.624      -4.2496451    
   2240000   296.49763     -6974.3871      1256.3456     -3066.6321     -22.051754    
   2245000   294.5385      -6949.4395      1230.8933     -3084.6563     -4.1807798    
   2250000   299.59628     -7033.653       1213.0534     -3141.4809     -22.215546    
   2255000   301.90499     -6989.011       1238.7562     -3050.4905     -18.102096    
   2260000   300.86275     -7040.0398      1206.6384     -3142.9573      37.47647     
   2265000   303.12184     -6916.0108      1239.8107     -2965.5541     -16.23646     
   2270000   291.56595     -6910.0954      1192.2287     -3110.5585      33.905497    
   2275000   294.96599     -6813.5756      1216.4113     -2959.4515      0.57147558   
   2280000   305.60166     -6921.9402      1145.8905     -3043.2282      14.420504    
   2285000   303.27271     -6909.6854      1181.1359     -3016.5545     -16.26774     
   2290000   300.10837     -6908.974       1204.8676     -3020.4083      4.2179492    
   2295000   307.68539     -6990.1543      1258.0435     -2980.6558      6.0390563    
   2300000   297.76315     -6992.769       1231.108      -3098.9348      8.7676015    
   2305000   298.61361     -6924.6928      1230.1349     -3024.2265     -24.945233    
   2310000   295.72463     -6960.7694      1186.3882     -3129.8844     -14.296381    
   2315000   295.65356     -6971.4467      1186.5053     -3141.08       -4.6034799    
   2320000   302.36466     -6822.6432      1235.944      -2882.8244     -10.610026    
   2325000   298.20983     -6824.3086      1203.3331     -2954.2549     -15.569301    
   2330000   298.68967     -6873.5616      1215.9753     -2986.5748     -5.1556135    
   2335000   296.90067     -6967.7275      1198.4324     -3114.2816     -2.370974     
   2340000   297.36566     -6928.2749      1213.9836     -3055.1198      15.596043    
   2345000   302.39851     -6873.5087      1251.8242     -2917.5069     -11.100789    
   2350000   293.3244      -6853.8774      1246.338      -2984.5065      20.102527    
   2355000   310.44773     -6874.0473      1216.7657     -2881.1244     -18.317631    
   2360000   297.05971     -6891.2955      1226.1436     -3008.7162     -11.995835    
   2365000   306.38453     -6915.8131      1184.817      -2991.1739      24.471375    
   2370000   299.2091      -6903.8805      1237.7817     -2990.4424      0.3399007    
   2375000   305.0631      -6895.9786      1203.2588     -2964.7143      24.116226    
   2380000   295.60134     -7010.5535      1178.1707     -3188.9884     -3.1021415    
   2385000   297.09231     -6948.4102      1214.8682     -3076.8149     -3.4949641    
   2390000   297.88619     -6860.163       1215.8108     -2980.5258     -9.6012484    
   2395000   304.56435     -6929.191       1212.8702     -2992.7754     -9.0616368    
   2400000   297.7199      -6926.0496      1190.8185     -3072.8916      7.4031633    
   2405000   307.6209      -6932.8656      1213.9346     -2968.0527      3.10264      
   2410000   297.84638     -6933.4596      1210.6846     -3059.3045      11.132394    
   2415000   300.23802     -6954.67        1227.7863     -3042.0261     -1.0398465    
   2420000   302.52239     -6987.0051      1211.0149     -3070.7048     -11.721751    
   2425000   297.82509     -6932.5837      1258.1993     -3011.1043      11.893455    
   2430000   301.44782     -6999.5756      1210.631      -3093.2686     -9.1370796    
   2435000   306.27332     -7017.2078      1175.9764     -3102.4037     -9.5837419    
   2440000   294.32308     -7030.1817      1203.1064     -3195.1118      11.006982    
   2445000   298.22247     -6966.6027      1239.2836     -3060.4854     -21.490999    
   2450000   292.85623     -7001.2622      1266.0064     -3116.4094     -27.46292     
   2455000   301.89533     -6933.7686      1193.096      -3040.9947     -3.043201     
   2460000   293.45439     -6891.4141      1222.807      -3044.4118      4.5412298    
   2465000   297.07156     -6897.6187      1248.7328     -2992.3442      12.612866    
   2470000   299.26084     -6946.351       1259.3997     -3010.8322     -2.9538918    
   2475000   299.99877     -7128.6278      1150.827      -3295.0828      12.326376    
   2480000   296.41214     -6973.1984      1207.1428     -3115.4107      2.2627908    
   2485000   302.44741     -6961.9421      1218.1578     -3039.1695      15.332973    
   2490000   298.23402     -6867.3127      1230.0846     -2970.2912      2.5697528    
   2495000   298.78066     -6971.6723      1264.7491     -3035.098       18.266829    
   2500000   293.04164     -6884.7178      1187.9126     -3076.3007     -0.28088127   
   2505000   298.28034     -6875.1008      1233.7415     -2974.0081     -30.376405    
   2510000   297.37957     -6922.5967      1184.5208     -3078.7799      24.018603    
   2515000   302.58523     -6915.8739      1235.9966     -2974.03       -7.91631      
   2520000   294.55275     -6958.1332      1209.4596     -3114.6563      11.791752    
   2525000   300.06168     -6966.369       1202.943      -3080.1454      9.0249597    
   2530000   305.03999     -6989.5998      1205.4886     -3056.3123      12.132197    
   2535000   298.81237     -6963.9979      1205.6008     -3086.2884     -0.63660637   
   2540000   290.60679     -7041.1956      1205.3034     -3237.1613     -0.08169656   
   2545000   306.95825     -7005.279       1244.7173     -3015.609      -2.1675912    
   2550000   290.23511     -6953.2241      1214.1668     -3143.6501     -6.5974464    
   2555000   297.94998     -6877.4732      1191.8354     -3021.2409      16.635939    
   2560000   297.76619     -6968.9935      1208.7555     -3097.4847     -10.009739    
   2565000   296.03612     -7017.1243      1211.5303     -3158.3116     -16.446982    
   2570000   305.60632     -7055.0495      1250.5469     -3071.6395     -10.601423    
   2575000   306.73697     -7033.3621      1233.4212     -3056.967      -10.051594    
   2580000   296.65909     -6987.2196      1180.4514     -3153.9151      16.877318    
   2585000   297.19323     -7037.2027      1194.3673     -3185.2056     -21.731865    
   2590000   299.02155     -6986.9701      1248.9374     -3064.0534     -18.557377    
   2595000   296.19612     -7025.6876      1293.2866     -3083.6878      1.3692433    
   2600000   301.42376     -7061.8147      1209.5104     -3156.8434      1.9797177    
   2605000   298.43283     -7102.8103      1189.2209     -3244.8746     -11.751154    
   2610000   295.62321     -6978.0535      1224.8706     -3109.593      -9.9940387    
   2615000   303.69547     -6989.4406      1201.2391     -3072.4259     -9.3741451    
   2620000   300.59582     -6948.6828      1213.0309     -3047.5948      3.0027816    
   2625000   292.99665     -7144.2929      1247.8346     -3276.3562     -12.116059    
   2630000   310.09719     -7122.8966      1203.6296     -3146.2446      28.439195    
   2635000   306.54329     -7040.882       1200.8358     -3098.8042      3.3866183    
   2640000   295.58886     -7076.4369      1272.6843     -3160.4699      2.2774977    
   2645000   298.38559     -7001.8164      1214.2648     -3119.2593      25.447874    
   2650000   300.99957     -6963.8653      1227.0017     -3045.1959     -3.3706006    
   2655000   302.56185     -6997.002       1227.3525     -3064.0112     -4.9560249    
   2660000   296.39038     -7013.3927      1273.861      -3089.0815     -6.7724874    
   2665000   304.90984     -6944.5208      1225.6933     -2992.1925     -4.4892829    
   2670000   304.03978     -7112.998       1246.5613     -3147.5822     -19.325853    
   2675000   296.14934     -7089.3231      1224.6228     -3216.4055     -0.3119508    
   2680000   307.4054      -7033.945       1274.4502     -3010.5434     -11.577277    
   2685000   296.71608     -7135.6703      1197.9497     -3284.3577      11.616773    
   2690000   297.51434     -7119.7978      1263.8225     -3195.4741     -12.33746     
   2695000   299.94049     -7085.0239      1197.645      -3205.182      -29.124434    
   2700000   302.80682     -7057.0077      1211.9492     -3137.2297      10.077668    
   2705000   302.99326     -7088.8123      1189.2402     -3190.0761      21.833703    
   2710000   298.43769     -6969.7007      1177.3078     -3123.6346      4.2991112    
   2715000   303.67765     -7104.4707      1217.8094     -3171.0451      10.922362    
   2720000   300.73566     -7070.6875      1182.7313     -3198.6486      12.603147    
   2725000   303.94333     -6984.7312      1276.7951     -2989.9441      24.256256    
   2730000   295.77681     -7054.5587      1231.8115     -3177.7837      13.731749    
   2735000   301.99188     -7006.1329      1188.157      -3117.4347      0.95285942   
   2740000   305.27118     -7001.0207      1225.3716     -3045.7829      0.1953125    
   2745000   302.99322     -6998.8289      1171.9153     -3117.4179      1.962643     
   2750000   308.69755     -6968.4701      1286.2681     -2921.6957      51.124773    
   2755000   295.95468     -7024.3229      1169.0016     -3208.7672      3.3653734    
   2760000   303.79831     -7012.4628      1212.2067     -3083.5609     -10.047324    
   2765000   295.6155      -7144.6532      1223.9014     -3277.2307     -5.0816727    
   2770000   298.27576     -7000.9346      1252.615      -3081.0094     -0.81555489   
   2775000   297.17842     -7092.7907      1209.2283     -3226.0652      27.488422    
   2780000   299.56123     -7042.2977      1156.129      -3207.3634      4.0942826    
   2785000   299.52308     -7052.3861      1207.4372     -3166.4847     -8.8410402    
   2790000   302.04435     -7020.1398      1192.5805     -3126.5488     -3.2252274    
   2795000   294.34115     -7016.6811      1211.9012     -3172.6547     -19.228646    
   2800000   295.24653     -7067.3424      1229.0604     -3198.0605      10.195937    
   2805000   296.08037     -7096.5813      1226.3067     -3222.5966     -10.716838    
   2810000   297.04795     -6976.6913      1223.6022     -3096.7585     -11.306707    
   2815000   297.15127     -6996.2843      1186.6453     -3152.3845     -6.3554664    
   2820000   293.81888     -7080.7803      1217.5614     -3235.7641     -19.170093    
   2825000   297.53722     -7140.1172      1189.0278     -3290.3836      1.7430377    
   2830000   301.60008     -7046.8848      1223.5894     -3126.2578     -16.494668    
   2835000   296.95855     -7118.9793      1199.1735     -3264.2747     -9.6004723    
   2840000   299.86708     -7085.257       1279.3409     -3124.3757      22.320878    
   2845000   298.25437     -7026.1318      1224.1754     -3134.8375     -0.76096102   
   2850000   305.27746     -7070.6128      1233.6618     -3107.0287     -14.317028    
   2855000   295.37454     -6975.2593      1215.0757     -3118.8174     -1.556262     
   2860000   296.40844     -6999.1034      1179.9328     -3168.5588      21.970225    
   2865000   306.0065      -7136.7747      1250.4876     -3149.8453     -17.06773     
   2870000   303.17918     -7170.9021      1240.5553     -3219.1882      12.763736    
   2875000   295.9228      -7120.2187      1221.5405     -3252.4093     -12.84162     
   2880000   302.37938     -7080.5747      1222.4682     -3154.1        -18.067021    
   2885000   296.53512     -7078.299       1141.3156     -3285.2388     -19.159137    
   2890000   293.5043      -6987.4671      1258.2779     -3104.5474      4.5224597    
   2895000   298.80581     -7065.3492      1197.9888     -3195.3103      1.953011     
   2900000   293.92078     -7063.4811      1213.7127     -3221.4024     -15.339894    
   2905000   295.77195     -7003.9731      1209.8345     -3149.2186      3.6314747    
   2910000   294.84215     -7045.8779      1210.9574     -3198.3152      21.466657    
   2915000   301.82333     -7089.924       1225.3432     -3165.5469      25.889498    
   2920000   300.13944     -7127.3665      1160.4978     -3282.8927      14.051468    
   2925000   296.30097     -7035.6805      1233.2173     -3152.8125     -5.4856577    
   2930000   298.18495     -7049.2348      1202.7244     -3180.0123      20.927072    
   2935000   299.96697     -7038.6284      1201.2911     -3154.9037      14.488078    
   2940000   297.42928     -7095.0497      1229.8126     -3205.4966     -6.8238241    
   2945000   300.01423     -7147.0308      1182.4165     -3281.758       6.9208268    
   2950000   299.69362     -7065.5776      1195.8106     -3189.7777      6.5620863    
   2955000   300.10551     -7021.0788      1218.4613     -3118.9448      15.023384    
   2960000   296.42002     -7068.1808      1166.7857     -3250.6798      8.2688761    
   2965000   295.51008     -7045.8182      1197.5006     -3205.7394      14.838566    
   2970000   299.19855     -7067.1173      1148.6971     -3242.8581      10.489207    
   2975000   301.17113     -7206.0709      1181.5256     -3331.3434     -21.655551    
   2980000   299.20377     -7108.2569      1260.9705     -3171.6775     -7.3511101    
   2985000   299.21326     -7139.4378      1226.2875     -3237.4567      5.9362196    
   2990000   298.25495     -7133.2862      1260.1264     -3206.0358     -32.783262    
   2995000   303.0661      -7051.8104      1222.359      -3119.304      -29.806602    
   3000000   298.98849     -7048.688       1189.6748     -3185.3296      5.2844186    
   3005000   309.81616     -6998.637       1193.3676     -3034.7601     -1.426273     
   3010000   293.4755      -7097.2687      1213.0544     -3259.8301     -27.069886    
   3015000   299.57609     -7152.9402      1229.3698     -3244.6321     -9.8874625    
   3020000   298.51428     -7076.711       1193.0375     -3214.2304     -4.5936837    
   3025000   302.02205     -6973.7919      1199.6211     -3073.3598     -0.26114394   
   3030000   300.55977     -7059.0227      1236.1181     -3135.1698      4.2678735    
   3035000   307.31741     -7030.9274      1248.3292     -3034.4337     -2.483521     
   3040000   304.20819     -6915.7976      1260.9627     -2934.4744     -4.6383686    
   3045000   293.81018     -7066.202       1227.7385     -3211.0864      3.2124251    
   3050000   304.00625     -7021.0898      1217.1446     -3085.3906      3.4253518    
   3055000   295.75611     -7043.0003      1199.6968     -3198.5251     -2.2302581    
   3060000   304.60224     -7148.835       1194.3028     -3230.6481     -11.98595     
   3065000   302.75816     -7081.8565      1219.3242     -3155.1386     -1.6998528    
   3070000   301.21255     -7137.3398      1221.5024     -3222.2653      14.740764    
   3075000   292.96837     -7107.0371      1224.8738     -3262.3142     -21.291969    
   3080000   298.4939      -7037.5241      1201.5645     -3166.6987      14.683568    
   3085000   294.82874     -7057.9817      1213.7369     -3207.7594     -21.411718    
   3090000   295.55564     -7119.7062      1186.3098     -3290.4107     -15.772182    
   3095000   304.15388     -7083.8818      1236.7237     -3127.2833     -16.735835    
   3100000   309.23789     -7078.9178      1214.5061     -3099.0736     -9.8462034    
   3105000   300.85451     -7118.7215      1215.4988     -3212.8523      18.989136    
   3110000   301.66433     -6976.88        1176.1764     -3103.0914      2.303775     
   3115000   303.54577     -7115.476       1247.8214     -3153.2177     -23.053494    
   3120000   297.74309     -7093.8499      1220.2782     -3211.025      -5.99805      
   3125000   309.47516     -7061.8045      1198.5297     -3095.8148     -5.7532282    
   3130000   308.78881     -7100.6809      1203.6634     -3135.6951      5.147972     
   3135000   297.00721     -7129.0697      1231.632      -3241.4715      8.6187605    
   3140000   301.88355     -7159.082       1186.3268     -3273.1827      0.14844627   
   3145000   302.00086     -7128.2867      1214.1258     -3213.5392     -12.764917    
   3150000   293.80774     -7157.6269      1248.4095     -3281.8622      0.73433231   
   3155000   303.35227     -7114.5242      1200.1371     -3201.6807     -24.213716    
   3160000   301.63287     -7072.4153      1232.2854     -3142.7991      13.824045    
   3165000   306.75019     -7158.1665      1263.7318     -3151.3425     -1.5855069    
   3170000   302.75482     -7121.2671      1229.4869     -3184.4163     -8.9563785    
   3175000   293.87915     -7024.9401      1213.9694     -3182.9769     -4.4248537    
   3180000   314.11114     -7124.316       1229.3468     -3086.0523      7.8646334    
   3185000   300.26111     -7092.9409      1229.7062     -3178.1707     -19.046871    
   3190000   304.32868     -7010.9075      1214.6953     -3074.7742      2.5202159    
   3195000   301.87859     -7099.2272      1181.8645     -3217.8345     -3.7122467    
   3200000   302.24248     -7130.453       1211.0413     -3216.6295     -15.485201    
   3205000   305.8233      -7035.788       1230.7757     -3070.2089     -7.7537329    
   3210000   306.64785     -7179.0492      1201.7771     -3235.0951      9.9793025    
   3215000   296.0361      -7099.6589      1202.1811     -3250.1956     -4.8714591    
   3220000   303.55837     -7087.3667      1189.4993     -3183.3178     -5.9019072    
   3225000   296.71676     -7137.1431      1193.0406     -3290.7336      7.716591     
   3230000   298.48455     -7077.161       1204.0809     -3203.9029     -23.672838    
   3235000   299.47024     -7094.5018      1201.0528     -3215.4573     -5.1992311    
   3240000   304.32133     -7085.3933      1190.279      -3173.742       12.632305    
   3245000   303.63707     -7088.5172      1227.5343     -3145.7297      25.026566    
   3250000   299.10347     -7139.3065      1211.9073     -3252.6874      9.9646742    
   3255000   301.62773     -7057.2036      1196.4469     -3163.4718      27.911927    
   3260000   305.5884      -7112.9172      1172.3145     -3207.8998     -0.31419818   
   3265000   292.99113     -7172.0694      1180.4432     -3371.5734      12.428898    
   3270000   290.07991     -7164.3224      1196.2426     -3374.0605     -4.6434891    
   3275000   297.68947     -7141.89        1180.3818     -3299.441      -3.6147386    
   3280000   308.82889     -7107.6244      1225.422      -3120.5216     -5.3515875    
   3285000   302.59629     -7160.1281      1239.4183     -3214.7636      11.540454    
   3290000   301.12494     -7103.3802      1221.2467     -3189.3448      3.8494434    
   3295000   299.44097     -7045.3907      1254.7689     -3112.8918     -4.7407794    
   3300000   295.37213     -7154.0497      1182.3057     -3330.3994      2.419045     
   3305000   296.07993     -7121.1231      1157.7687     -3315.6803     -8.9780697    
   3310000   297.35585     -7123.7416      1217.5517     -3247.106       7.4229738    
   3315000   307.38024     -7072.9151      1194.3892     -3129.7995      4.2506614    
   3320000   300.57342     -7017.562       1218.3584     -3111.3468     -29.080247    
   3325000   298.91129     -7010.2647      1217.1676     -3120.1038     -0.31309459   
   3330000   296.28557     -7026.5006      1241.8022     -3135.1855      11.075727    
   3335000   301.57666     -7088.1261      1244.7788     -3146.5191     -9.2171008    
   3340000   296.76349     -6967.7045      1168.4242     -3145.4935      25.822686    
   3345000   306.78576     -7007.9399      1227.4737     -3037.056      -8.0460196    
   3350000   305.71895     -7114.5776      1221.4609     -3159.2463      4.5929589    
   3355000   297.78259     -7132.9682      1207.1894     -3262.8787      29.654142    
   3360000   296.71717     -7142.6383      1211.5966     -3277.669       0.75986019   
   3365000   288.90333     -7095.7467      1197.8701     -3314.3787      22.311883    
   3370000   297.81608     -7079.8821      1189.4046     -3227.278      -15.471259    
   3375000   304.1581      -6990.9907      1278.8257     -2992.2525     -3.5486318    
   3380000   297.78222     -7037.5155      1232.9147     -3141.7041     -15.880206    
   3385000   295.11909     -7095.1253      1209.341      -3246.7025     -0.35150167   
   3390000   299.63803     -7075.7953      1221.6502     -3174.653      -24.158838    
   3395000   293.48084     -7059.3681      1225.198      -3209.7382     -0.73079418   
   3400000   301.64791     -7071.2845      1250.1131     -3123.706      -26.199462    
   3405000   305.12398     -7106.8553      1256.4091     -3121.8964     -22.680431    
   3410000   303.80941     -7144.581       1210.3031     -3217.4835     -28.760745    
   3415000   301.78087     -7174.5752      1235.4991     -3240.4217      1.8079303    
   3420000   296.35149     -7061.7774      1162.2921     -3249.3827      19.616908    
   3425000   300.81104     -7169.9853      1196.1682     -3283.8354     -8.9594526    
   3430000   308.82577     -7037.747       1204.1136     -3071.9805      17.344301    
   3435000   300.37868     -7040.9543      1201.2973     -3153.5416      0.74611678   
   3440000   304.81261     -7043.5827      1229.2322     -3088.585      -5.4049941    
   3445000   297.26698     -7014.9266      1197.0119     -3159.6256      19.662377    
   3450000   297.18802     -7021.706       1205.1624     -3158.9605     -12.141313    
   3455000   296.26555     -7072.8463      1243.625      -3179.8873     -18.756785    
   3460000   306.21056     -7049.1515      1286.2587     -3024.6264     -7.0330536    
   3465000   294.29678     -7004.6797      1198.7154     -3174.2358     -14.167281    
   3470000   301.95483     -7038.2977      1201.8137     -3136.2739      4.4526921    
   3475000   296.31252     -7066.7671      1198.8179     -3218.1952      4.4408704    
   3480000   296.91171     -7104.3714      1251.7151     -3197.544       4.07059      
   3485000   301.77869     -7180.0117      1227.3291     -3254.0477     -2.1116581    
   3490000   302.97714     -7076.9946      1220.1166     -3147.5261     -32.931375    
   3495000   301.60639     -7059.2607      1182.6466     -3179.52       -7.9684956    
   3500000   296.60163     -7094.3963      1199.831      -3242.226      -0.50070305   
   3505000   303.30397     -7130.6534      1190.9421     -3227.4367      4.8815443    
   3510000   297.76907     -7153.3079      1203.9693     -3286.5595     -3.2781931    
   3515000   287.75466     -7074.5701      1212.0536     -3289.2905      2.9006598    
   3520000   301.66006     -7115.6596      1189.8661     -3228.2195      10.057536    
   3525000   296.6714      -7051.4322      1226.0519     -3172.417       17.466718    
   3530000   296.86953     -7168.7262      1232.086      -3281.9052     -23.174928    
   3535000   300.48353     -7143.4658      1221.1719     -3235.2409     -12.754057    
   3540000   298.46795     -7054.1772      1210.447      -3174.7015      30.732908    
   3545000   308.63871     -7192.7622      1179.5695     -3253.2126      6.2301684    
   3550000   302.34426     -7120.1892      1180.8548     -3235.6419      3.3610329    
   3555000   303.27094     -7156.5101      1195.7431     -3248.7878      14.20901     
   3560000   297.44798     -7106.9097      1222.7708     -3224.2312     -15.50752     
   3565000   303.71238     -7133.3739      1179.6522     -3237.7949     -3.1130243    
   3570000   308.89484     -7120.8145      1220.0414     -3138.5026     -10.856382    
   3575000   303.46884     -7138.0456      1231.0788     -3193.2178      1.2806474    
   3580000   294.35471     -7130.3422      1162.0268     -3336.069      -11.23136     
   3585000   295.46135     -7071.0642      1228.5872     -3200.3345     -3.514269     
   3590000   296.82639     -7163.4175      1207.614      -3301.4543      11.176052    
   3595000   290.54738     -7128.8923      1214.5327     -3316.1599      7.1849779    
   3600000   306.05025     -7101.801       1212.8023     -3152.1658     -1.927701     
   3605000   303.94521     -7087.2227      1181.2859     -3187.928       11.85602     
   3610000   301.15906     -7139.4576      1232.5594     -3213.8043      20.553204    
   3615000   294.21112     -7124.4582      1217.2268     -3276.269       2.8368885    
   3620000   304.81989     -6993.7161      1217.0963     -3050.7892      7.9058502    
   3625000   295.20959     -7100.7348      1208.4523     -3252.3913      10.342907    
   3630000   303.57662     -6990.3276      1226.1707     -3049.4442      22.345836    
   3635000   305.10604     -7009.4944      1212.5983     -3068.5067     -10.578338    
   3640000   294.57733     -7068.6696      1277.7018     -3156.7307     -17.311408    
   3645000   302.15446     -7240.4313      1235.577      -3302.8592      11.372445    
   3650000   294.56011     -7185.861       1274.3479     -3277.4299     -4.2013642    
   3655000   297.81634     -7263.5649      1226.6742     -3373.6889      8.0661098    
   3660000   296.4369      -7084.6633      1195.5631     -3238.2339     -19.438947    
   3665000   297.5801      -7224.9883      1205.941      -3357.958       9.2703646    
   3670000   293.95892     -7202.5302      1183.4881     -3390.335      -7.2469817    
   3675000   304.90098     -7132.784       1195.1929     -3211.0354      1.4159393    
   3680000   305.89688     -7158.1286      1201.4153     -3221.2518      3.9157946    
   3685000   305.96034     -7103.5944      1235.4957     -3132.0697      4.4397471    
   3690000   305.59494     -7072.9231      1187.1294     -3153.0323      4.5127632    
   3695000   303.66017     -7134.1659      1210.4791     -3208.2269      26.21528     
   3700000   300.89417     -7080.4684      1166.091      -3223.6523     -10.371691    
   3705000   302.49944     -6979.6078      1261.4806     -3013.0472      12.887706    
   3710000   301.0953      -7053.9067      1196.1998     -3165.1832     -1.9559802    
   3715000   300.07904     -6945.6562      1262.0434     -3000.177      -11.109843    
   3720000   297.2812      -6957.7525      1215.6027     -3083.7334     -20.980555    
   3725000   306.64844     -7043.3439      1192.3498     -3108.8118     -8.4947342    
   3730000   298.72209     -7226.9528      1221.6102     -3334.0413     -8.1344824    
   3735000   301.21747     -7036.7599      1224.124      -3119.0198      19.836637    
   3740000   296.75257     -7087.7625      1234.5006     -3199.5727      19.273077    
   3745000   295.22735     -7136.9219      1191.1436     -3305.7283     -41.855822    
   3750000   294.70396     -7185.8087      1238.1922     -3312.247       13.705925    
   3755000   296.80569     -7143.1771      1192.0489     -3296.964      -6.9493933    
   3760000   300.57184     -7188.5887      1304.0425     -3196.7034      0.52095558   
   3765000   307.29833     -7012.1408      1206.5297     -3057.6173     -20.172991    
   3770000   301.03646     -7054.9822      1176.6896     -3186.2951     -17.748544    
   3775000   303.57046     -7066.3566      1177.672      -3174.027      -10.637753    
   3780000   300.35259     -7155.0346      1227.4419     -3241.7107     -22.660533    
   3785000   297.39989     -7151.895       1192.7867     -3299.6306     -13.449876    
   3790000   305.36208     -7159.9146      1169.8765     -3259.359      -31.84774     
   3795000   294.0983      -7108.0615      1210.3652     -3267.7428     -8.0336462    
   3800000   303.32149     -7069.1093      1165.0092     -3191.6689      5.191261     
   3805000   305.43608     -7109.9287      1235.6746     -3142.9134      16.997252    
   3810000   302.61938     -7044.8626      1220.1422     -3118.5678     -6.6421201    
   3815000   300.77204     -7019.1793      1265.1809     -3064.3655      8.4358638    
   3820000   302.05668     -7005.285       1203.7537     -3100.4106      6.4034303    
   3825000   305.02228     -7069.16        1193.9926     -3147.527      -32.672577    
   3830000   295.53443     -7091.943       1212.5053     -3236.6417      12.426778    
   3835000   290.85224     -7252.8154      1192.0707     -3459.8189      1.3619186    
   3840000   297.3655      -7135.2284      1226.6553     -3249.4029     -2.933858     
   3845000   295.79606     -7171.4516      1203.0475     -3323.2684     -7.8429417    
   3850000   300.81166     -7156.2288      1235.5595     -3230.682      -0.68486758   
   3855000   300.02685     -7189.52        1222.0636     -3284.4873     -6.2977222    
   3860000   305.84709     -7121.0914      1176.2975     -3209.7776     -14.567197    
   3865000   302.28103     -7082.5083      1205.229      -3174.1523      0.35836791   
   3870000   292.70101     -7062.9066      1169.7787     -3275.6696     -21.649496    
   3875000   294.8019      -7056.9078      1179.738      -3240.9244      4.6660866    
   3880000   307.50332     -7053.1488      1202.6049     -3100.7169      23.936201    
   3885000   306.53188     -7087.1717      1226.1688     -3119.863       10.615534    
   3890000   295.17853     -7058.9751      1242.5642     -3176.7976      24.281991    
   3895000   309.66215     -7014.9433      1218.523      -3027.2881     -21.229531    
   3900000   297.19928     -7051.3966      1221.0013     -3172.7115      6.2894089    
   3905000   297.41097     -7137.6206      1208.5269     -3269.5169      15.467677    
   3910000   300.24832     -7196.3914      1176.801      -3334.6407      13.597624    
   3915000   303.4172      -7132.3671      1196.7465     -3222.3334      10.069734    
   3920000   303.85563     -7108.8636      1254.793      -3136.8628     -2.3057277    
   3925000   302.7384      -7213.7909      1205.1224     -3301.4514     -16.162639    
   3930000   301.06842     -7196.4414      1217.8775     -3286.2806     -15.337638    
   3935000   301.03516     -7092.8526      1235.6941     -3165.1727     -7.2626878    
   3940000   298.68781     -7104.9678      1170.6883     -3263.2846     -20.132944    
   3945000   301.85537     -7030.4851      1205.0675     -3126.097      -16.513752    
   3950000   300.63406     -7111.7931      1238.6423     -3184.7518     -28.61662     
   3955000   303.87996     -7112.1304      1221.2068     -3173.4983      27.49794     
   3960000   293.39737     -7076.6097      1274.6249     -3178.2993      17.117591    
   3965000   293.90082     -7066.1195      1226.1791     -3211.7529      26.155566    
   3970000   296.87467     -7073.2308      1163.6201     -3254.8297     -5.7166646    
   3975000   300.7176      -7093.6825      1238.7328     -3165.8036      1.7533693    
   3980000   295.60643     -7022.2623      1208.0613     -3170.7612     -8.0234828    
   3985000   298.7008      -7058.7082      1204.9872     -3182.61        9.3051771    
   3990000   303.05712     -7056.7632      1210.8488     -3135.8472      17.030302    
   3995000   293.99358     -7095.6608      1185.339      -3281.3048     -28.184769    
   4000000   298.24651     -7086.4564      1203.9465     -3215.4613      15.20432     
   4005000   296.3205      -7068.5339      1255.9229     -3162.7856     -24.237679    
   4010000   293.90749     -6986.5049      1240.5762     -3117.6815     -11.864987    
   4015000   296.58675     -7105.2059      1209.8503     -3243.1493      7.1052328    
   4020000   300.68449     -7143.0062      1229.9409     -3224.2153      5.5233957    
   4025000   304.78545     -6977.2619      1227.2898     -3024.4495      13.936492    
   4030000   303.68611     -7052.9151      1201.8919     -3135.3314      11.054458    
   4035000   297.14143     -7115.9821      1215.3971     -3243.4185      2.7298931    
   4040000   292.21032     -7111.0046      1189.2137     -3308.7205     -4.7797188    
   4045000   298.28785     -7064.0676      1152.354      -3244.2954      9.9151141    
   4050000   301.32118     -7050.5294      1224.4496     -3131.5363      8.2157595    
   4055000   304.85627     -7004.5812      1188.5492     -3089.8761      23.131431    
   4060000   294.59895     -7030.7071      1246.5177     -3149.7589     -9.5286003    
   4065000   296.29832     -7013.3385      1197.4116     -3166.2998     -0.34332984   
   4070000   297.48223     -7076.5649      1166.5527     -3249.7982     -11.186846    
   4075000   297.2024      -7113.7177      1229.708      -3226.298       14.881055    
   4080000   289.57885     -7084.1799      1226.1188     -3268.5225      1.4862414    
   4085000   306.38783     -7061.6501      1223.207      -3098.5914      10.074727    
   4090000   301.07082     -7005.3427      1221.5386     -3091.4994      11.190817    
   4095000   298.17441     -7039.0186      1243.7237     -3128.891      -12.521734    
   4100000   302.55919     -7103.327       1234.2154     -3163.4972     -12.852271    
   4105000   303.34955     -7074.47        1207.7824     -3154.0055     -6.8372773    
   4110000   294.80343     -7052.8085      1192.4928     -3224.0566      25.932939    
   4115000   298.46137     -7139.6259      1222.5633     -3248.0926     -14.458929    
   4120000   299.38928     -7089.2067      1200.3001     -3211.6389     -10.361429    
   4125000   302.00862     -7151.3437      1169.5416     -3281.111      -13.838992    
   4130000   303.04808     -7062.6529      1294.124      -3058.5426     -21.199329    
   4135000   289.71058     -7027.7783      1205.6383     -3231.4234     -3.8199536    
   4140000   295.90993     -7020.8527      1177.5989     -3197.1        -13.874705    
   4145000   300.28927     -7073.2998      1206.9003     -3181.0836      3.294059     
   4150000   292.85423     -7089.1172      1217.8431     -3252.4457      8.4043874    
   4155000   303.52485     -7125.1235      1216.6677     -3194.206      -19.911928    
   4160000   301.01692     -7057.0976      1224.667      -3140.6078      9.9124147    
   4165000   298.74244     -7012.4054      1193.2169     -3147.7051      5.6270049    
   4170000   303.05663     -6984.1416      1227.1739     -3046.905      -4.4108961    
   4175000   305.94196     -7043.8546      1199.8177     -3108.1723      15.467897    
   4180000   300.39741     -7102.6823      1230.7885     -3185.6108     -6.8497607    
   4185000   296.97991     -7201.4439      1224.8767     -3320.8451      18.520976    
   4190000   306.37665     -7163.1858      1204.3135     -3219.1204      6.9113349    
   4195000   292.97702     -7012.092       1235.9948     -3156.1707     -10.21478     
   4200000   289.68074     -7084.8289      1210.5561     -3283.823      -15.660474    
   4205000   297.16987     -6984.8273      1208.1379     -3119.2687      6.8722981    
   4210000   297.91982     -7083.656       1231.3643     -3188.1645      13.519404    
   4215000   298.46854     -7057.1527      1199.9737     -3188.1449     -1.7633834    
   4220000   307.33014     -7148.3345      1199.1561     -3200.9001     -19.570236    
   4225000   302.06088     -7098.0146      1252.2775     -3144.5787      6.9112058    
   4230000   297.21139     -7103.5639      1198.1018     -3247.67       -13.186232    
   4235000   300.09922     -7155.3743      1226.5051     -3245.2529     -0.80743768   
   4240000   296.62715     -7023.5708      1215.6201     -3155.3831      14.360287    
   4245000   294.76602     -7060.5261      1195.636      -3228.9655      14.285489    
   4250000   295.76982     -7082.8975      1198.4969     -3239.4996      1.1019932    
   4255000   298.48722     -7031.4265      1245.429      -3116.7965     -1.017791     
   4260000   298.00471     -7036.6918      1218.9075     -3152.898      -2.2901642    
   4265000   297.75205     -7110.8374      1213.6629     -3234.5476      22.387836    
   4270000   292.8944      -7134.5351      1187.7639     -3327.5835     -3.9449547    
   4275000   305.12448     -7118.2148      1244.298      -3145.3625      17.191082    
   4280000   302.44776     -7088.4843      1204.5547     -3179.3116      4.0415283    
   4285000   300.17571     -7131.7508      1194.526      -3252.9245      0.81352469   
   4290000   303.93227     -7067.1846      1174.3475     -3174.944      -18.272324    
   4295000   290.3927      -7178.5082      1237.8675     -3343.8242      12.751939    
   4300000   305.68963     -7127.9676      1222.2714     -3172.088       4.5181519    
   4305000   294.57378     -7124.5399      1211.2341     -3279.1004     -10.871613    
   4310000   296.83725     -7071.2406      1218.0367     -3198.7575      9.4288501    
   4315000   294.74805     -7153.9501      1177.2826     -3340.9036     -26.421108    
   4320000   298.57443     -7115.1185      1187.289      -3257.8485     -22.866786    
   4325000   302.75038     -7102.2667      1228.7828     -3166.1598     -2.8698463    
   4330000   297.43784     -7127.7048      1236.609      -3231.2787      16.640831    
   4335000   301.44919     -6956.7837      1190.4187     -3070.6766     -9.9327882    
   4340000   299.35965     -7041.5332      1236.8371     -3127.6933     -5.2858551    
   4345000   303.97098     -7125.999       1216.2862     -3191.4736      2.0016578    
   4350000   291.37011     -7140.3329      1198.0791     -3336.6969      0.4372808    
   4355000   299.27572     -7079.3563      1169.1285     -3233.9756      23.050338    
   4360000   305.27226     -7136.1722      1205.0062     -3201.2901      20.338292    
   4365000   304.5424      -7102.4564      1235.293      -3143.8143     -4.392453     
   4370000   299.65909     -7034.3081      1186.2001     -3168.4275      8.9149447    
   4375000   299.32896     -7096.301       1186.3066     -3233.2661      19.858552    
   4380000   302.23702     -7165.1357      1221.7053     -3240.697      -14.769666    
   4385000   303.24912     -7072.126       1210.8165     -3149.5254     -18.166575    
   4390000   306.72496     -7067.8568      1241.3411     -3083.6492     -31.337192    
   4395000   296.25958     -7082.4044      1183.4756     -3249.6482      1.2796483    
   4400000   300.62489     -7177.6442      1210.0134     -3279.3137      3.3514509    
   4405000   298.04965     -7135.5872      1223.6846     -3246.6144     -7.520361     
   4410000   302.27557     -7043.4329      1217.3666     -3122.988       12.19457     
   4415000   302.15947     -7072.93        1246.1406     -3124.7494      0.80686024   
   4420000   308.05873     -7110.7795      1190.7213     -3165.2645      12.69325     
   4425000   300.23496     -7142.61        1210.9091     -3246.8707     -10.997388    
   4430000   294.61074     -7135.4715      1183.8032     -3317.1323      18.980891    
   4435000   304.5076      -7175.1698      1205.5522     -3246.5797      16.840995    
   4440000   296.70942     -7113.0476      1206.6047     -3253.1396      7.6113121    
   4445000   296.08964     -7097.1781      1230.8218     -3218.5953      17.417896    
   4450000   296.1025      -6993.9958      1203.3334     -3142.7865     -2.240286     
   4455000   289.1692      -7020.7896      1233.7768     -3201.1375      16.889585    
   4460000   297.86522     -7090.9639      1269.6665     -3157.6584      23.092266    
   4465000   295.08379     -7197.1704      1252.4492     -3305.9549      5.8046051    
   4470000   302.5992      -7159.8017      1236.2021     -3217.6274     -29.166625    
   4475000   293.77772     -7083.1424      1221.4801     -3234.5756     -20.612923    
   4480000   296.6472      -7032.2054      1231.463      -3147.9955     -22.532941    
   4485000   300.33785     -7100.7537      1173.7076     -3241.2958     -2.8490559    
   4490000   303.56647     -7078.6652      1201.0011     -3163.0421      37.798342    
   4495000   300.12628     -7185.9764      1148.0329     -3354.0852     -10.8921      
   4500000   299.41856     -7061.1077      1189.8868     -3193.6913      4.7590092    
   4505000   300.97402     -7086.1027      1200.4922     -3194.1713      18.260045    
   4510000   299.3028      -7084.2778      1212.0438     -3195.7395      9.2791427    
   4515000   306.47394     -7075.399       1199.6618     -3135.1154     -29.879347    
   4520000   297.39815     -7051.4937      1228.2461     -3163.7854      1.2797121    
   4525000   296.28371     -7080.2153      1207.7386     -3222.9803     -2.5414963    
   4530000   307.39833     -7145.0335      1222.4957     -3173.6498     -2.5065579    
   4535000   297.75105     -7063.0612      1160.6475     -3239.7957     -14.594177    
   4540000   294.75007     -7041.0126      1232.5993     -3172.6313      11.249874    
   4545000   308.31665     -7145.1327      1198.3055     -3189.7271      1.7819183    
   4550000   297.05695     -7048.2645      1175.3123     -3216.5412     -11.807247    
   4555000   300.43869     -7060.3648      1237.1486     -3136.5642      2.4880556    
   4560000   295.99833     -7169.6351      1215.8092     -3306.8815     -3.4835972    
   4565000   303.71614     -7109.9109      1184.0518     -3209.8987     -17.883754    
   4570000   300.9374      -7176.7912      1201.9089     -3283.7706      7.1271813    
   4575000   301.27555     -7042.9969      1241.5604     -3107.3009     -24.296552    
   4580000   301.32487     -7126.9137      1178.5091     -3253.828       0.34564586   
   4585000   300.11019     -7048.2316      1245.4799     -3119.0373      11.134729    
   4590000   290.24162     -7013.9352      1199.9905     -3218.4793     -20.094005    
   4595000   299.84093     -7058.3557      1218.6739     -3158.3753      13.942101    
   4600000   297.76927     -7091.2972      1260.603      -3167.9132     -15.428589    
   4605000   302.26805     -7100.5193      1200.4325     -3197.0758     -6.1577233    
   4610000   303.32116     -6948.1421      1243.6964     -2992.0174     -8.5422827    
   4615000   303.61678     -7103.0291      1228.3059     -3159.6513     -9.2596336    
   4620000   299.31953     -7105.0432      1233.4111     -3194.9881      6.9788056    
   4625000   294.1398      -7106.8584      1172.1302     -3304.4036      15.456477    
   4630000   295.83836     -7077.4269      1231.6026     -3200.3105      5.9968742    
   4635000   297.03902     -7059.6501      1283.7917     -3119.6076     -5.9288296    
   4640000   301.27927     -7097.487       1196.1154     -3207.2028      11.784599    
   4645000   304.36061     -7023.4568      1172.3125     -3129.4208     -23.207725    
   4650000   302.46233     -7065.2488      1232.1131     -3128.3875     -11.81936     
   4655000   302.95743     -7066.5967      1221.7533     -3135.6677      16.499244    
   4660000   300.52038     -7072.5169      1225.1401     -3159.9943      3.4584021    
   4665000   298.72296     -7119.7408      1256.3654     -3192.0662     -16.509161    
   4670000   304.67822     -7163.2065      1173.5039     -3265.139       23.990372    
   4675000   295.82469     -7125.5061      1197.8013     -3282.3133      11.314636    
   4680000   301.52066     -7025.1818      1233.9257     -3094.9287      22.175806    
   4685000   295.96505     -7064.0834      1234.1621     -3183.2746     -22.235016    
   4690000   294.72495     -7145.3495      1238.5239     -3271.2684     -6.9494032    
   4695000   302.26528     -7110.7385      1220.2803     -3187.472       6.6956773    
   4700000   300.39175     -7113.9324      1223.5101     -3204.1901     -9.6516347    
   4705000   298.60001     -7126.9941      1262.8379     -3193.9465      6.9149445    
   4710000   301.7015      -7061.0562      1207.9341     -3155.1776      10.247894    
   4715000   298.94663     -7128.1184      1242.8699     -3211.939       4.2725478    
   4720000   298.19803     -7061.9645      1196.8311     -3198.5183     -9.9230517    
   4725000   295.33572     -7026.5661      1226.0321     -3159.5149     -10.448132    
   4730000   293.54912     -7167.6302      1173.7435     -3368.8443     -31.767597    
   4735000   304.01576     -7011.1827      1222.001      -3070.542       7.6570829    
   4740000   305.3793      -7114.2174      1206.4438     -3176.9406     -11.45876     
   4745000   297.84323     -7152.4388      1184.3835     -3304.6131      18.111129    
   4750000   302.58728     -7062.9262      1257.248      -3099.8125      9.7215333    
   4755000   308.11741     -6964.4898      1218.8472     -2990.3241      3.0203868    
   4760000   299.90385     -7105.5728      1215.6646     -3208.039       11.235348    
   4765000   308.19544     -7156.2881      1212.142      -3188.1299      17.561007    
   4770000   305.25902     -7100.8012      1174.1804     -3196.8633     -20.288435    
   4775000   299.43319     -7096.7855      1255.8149     -3163.3102     -36.154111    
   4780000   299.96562     -6985.4004      1217.67       -3085.3088     -9.3465695    
   4785000   298.21587     -7045.4992      1184.3436     -3194.381       2.4225566    
   4790000   300.35592     -6985.1884      1231.3894     -3067.8871     -23.17029     
   4795000   303.90588     -6916.3445      1223.2675     -2975.4199      9.827619     
   4800000   293.25261     -7074.2692      1220.9949     -3230.8833     -16.8934      
   4805000   301.10858     -7033.6229      1213.3734     -3127.607      -0.60886347   
   4810000   299.05585     -7035.6682      1183.5343     -3177.8478      4.2483563    
   4815000   298.90963     -7094.9636      1271.4979     -3150.4872      13.266703    
   4820000   302.80725     -7127.4248      1217.8343     -3201.7578     -13.808794    
   4825000   306.19549     -7085.8116      1218.6341     -3129.0457      25.773853    
   4830000   294.85732     -7186.3053      1209.211      -3340.3533      0.66151076   
   4835000   300.5465      -7066.053       1198.623      -3179.814      -9.8945597    
   4840000   303.63432     -7126.6988      1206.1174     -3205.3527      12.73436     
   4845000   304.31402     -7025.3498      1233.8435     -3070.1995      16.145969    
   4850000   296.99034     -7055.8223      1216.1639     -3183.8431      4.4164834    
   4855000   299.07687     -7186.8062      1215.3893     -3296.9428     -22.46822     
   4860000   302.06697     -7130.6855      1224.5647     -3204.908       39.415893    
   4865000   298.39345     -7123.6752      1251.0661     -3204.2466     -3.6593546    
   4870000   290.88286     -7118.0371      1193.7673     -3323.0701      0.04460906   
   4875000   298.99518     -7120.2756      1202.0077     -3244.5244      15.298412    
   4880000   309.96897     -7063.461       1233.5185     -3058.0667     -9.0563646    
   4885000   296.52503     -7061.1326      1228.4429     -3181.0353     -21.118434    
   4890000   306.28426     -7067.3728      1228.9008     -3099.5464     -7.9906036    
   4895000   293.90518     -7089.2822      1214.051      -3247.0047      6.6668061    
   4900000   295.9314      -7050.8489      1211.7678     -3192.7352     -15.500758    
   4905000   305.82546     -7025.251       1223.26       -3067.1682     -0.13634799   
   4910000   305.18372     -7124.1508      1243.6338     -3151.4329      5.3878295    
   4915000   296.94683     -7069.6645      1233.025      -3181.2132     -2.9063926    
   4920000   294.95956     -7121.2139      1197.3108     -3286.2479      10.736437    
   4925000   304.96977     -7073.8338      1197.7704     -3148.8925     -21.494613    
   4930000   303.63004     -7140.102       1168.0523     -3256.8592      16.814005    
   4935000   300.88227     -7056.041       1229.8952     -3135.5271     -9.9159036    
   4940000   291.51903     -7143.3747      1172.2521     -3364.234      -13.077589    
   4945000   294.9811      -7087.4414      1198.5927     -3251.0008      10.794335    
   4950000   291.62659     -7088.5332      1222.9518     -3257.731      -5.8278024    
   4955000   292.36358     -7133.643       1219.0014     -3300.2007     -1.6673544    
   4960000   297.05179     -7098.2792      1212.2296     -3229.6847      17.549586    
   4965000   299.34144     -6975.721       1203.8149     -3095.0661      1.2959778    
   4970000   299.24988     -6959.657       1233.0482     -3050.5877     -12.580177    
   4975000   306.57002     -7129.4525      1204.9746     -3182.9969      13.762291    
   4980000   306.9491      -7145.9005      1190.9068     -3210.1228     -14.173208    
   4985000   296.96785     -7106.8741      1232.4976     -3218.7622      1.1264808    
   4990000   304.97531     -7160.2061      1245.4726     -3187.5132     -8.8797815    
   4995000   299.56393     -7087.9452      1228.8415     -3180.2742     -5.2192673    
   5000000   302.0241      -7083.6049      1203.7071     -3179.0684      3.9422867    
   5005000   299.79289     -7145.5739      1206.8698     -3257.8271     -2.9853882    
   5010000   308.44423     -7123.6791      1239.7104     -3125.7277      19.62628     
Loop time of 6445.26 on 18 procs for 5000000 steps with 3001 atoms

Performance: 2010.780 ns/day, 0.012 hours/ns, 775.764 timesteps/s
99.7% CPU use with 18 MPI tasks x 1 OpenMP threads

MPI task timing breakdown:
Section |  min time  |  avg time  |  max time  |%varavg| %total
---------------------------------------------------------------
Pair    | 43.778     | 564.3      | 2134.9     |2517.9 |  8.76
Bond    | 7.0167     | 42.184     | 132.56     | 558.3 |  0.65
Neigh   | 2668.4     | 2680.7     | 2700.2     |  22.1 | 41.59
Comm    | 1273.7     | 3026.8     | 3618.7     |1222.0 | 46.96
Output  | 21.512     | 21.565     | 21.589     |   0.5 |  0.33
Modify  | 10.17      | 51.981     | 158.39     | 592.1 |  0.81
Other   |            | 57.73      |            |       |  0.90

Nlocal:        166.722 ave         582 max           6 min
Histogram: 8 0 1 4 3 0 0 0 0 2
Nghost:           5032 ave        6075 max        3302 min
Histogram: 2 0 0 0 6 2 0 0 2 6
Neighs:        5121.17 ave       19897 max         108 min
Histogram: 8 1 3 2 2 0 0 0 0 2
FullNghs:      10242.3 ave       40208 max         280 min
Histogram: 8 1 3 4 0 0 0 0 0 2

Total # of neighbors = 184362
Ave neighs/atom = 61.433522
Ave special neighs/atom = 3.5988004
Neighbor list builds = 500000
Dangerous builds = 500000
Total wall time: 1:47:30
