LAMMPS (23 Jun 2022)
OMP_NUM_THREADS environment is not set. Defaulting to 1 thread. (src/src/comm.cpp:98)
  using 1 OpenMP thread(s) per MPI task

variable 		movie equal 25000
variable		solvent equal 0.2  #0.2 is a good solvent, 0.5 is a bad solvent, 1.0 is no solvent/vacuum
variable		np_rad equal 25.0  #NP radius in Angstrom (= 0.1 nm)
variable                coor_del equal 4.0  # in order for a ligand to be considered to be bound, it must be within this radius of the edge of the NP VDW
variable 		E_bind equal 8.0  #ligand-NP binding energy in kcal/mol
variable		Lbox equal 150.0   #edge length of cubic simulation box
variable 		Nlig equal 300	   #number of ligands
variable		seed equal 314159
variable		trajsteps equal 25000000	 #number of timesteps (length of simulation)

units 			real
atom_style		molecular

region 			box block 0 ${Lbox} 0 ${Lbox} 0 ${Lbox} units box
region 			box block 0 150 0 ${Lbox} 0 ${Lbox} units box
region 			box block 0 150 0 150 0 ${Lbox} units box
region 			box block 0 150 0 150 0 150 units box
create_box		4 box bond/types 2 angle/types 1 extra/bond/per/atom 2 extra/angle/per/atom 1 extra/special/per/atom 3
Created orthogonal box = (0 0 0) to (150 150 150)
  2 by 3 by 3 MPI processor grid

molecule		lig ligand.mol
Read molecule template lig:
  1 molecules
  0 fragments
  5 atoms with max type 2
  4 bonds with max type 1
  3 angles with max type 1
  0 dihedrals with max type 0
  0 impropers with max type 0
#molecule		hex hexane.mol

mass            1 60 #C1, MARTINI bead representing a 4-carbon segment of an alkyl chain
mass            2 60 #N6d, MARTINI bead representing a NH2 amino group + a 2-carbon segment of an alkyl chain
mass            3 43 #SC2, MARTINI bead representing a 3-carbon segment of an alkyl chain. NOT USED IN THIS SIMULATION!
mass            4 500 #a spherical nanoparticle. the mass is not realistic.

# put NP in center
create_atoms	4 single $(v_Lbox/2) $(v_Lbox/2) $(v_Lbox/2) units box
create_atoms	4 single 75 $(v_Lbox/2) $(v_Lbox/2) units box
create_atoms	4 single 75 75 $(v_Lbox/2) units box
create_atoms	4 single 75 75 75 units box
Created 1 atoms
  using box units in orthogonal box = (0 0 0) to (150 150 150)
  create_atoms CPU = 0.000 seconds

# define region as everything outside a spherical center in sim. box. ASSUME SIM. BOX IS IMPLIED? doc seems to...
region			box_with_hole sphere $(v_Lbox/2) $(v_Lbox/2) $(v_Lbox/2) $(v_np_rad+5.0) side out units box
region			box_with_hole sphere 75 $(v_Lbox/2) $(v_Lbox/2) $(v_np_rad+5.0) side out units box
region			box_with_hole sphere 75 75 $(v_Lbox/2) $(v_np_rad+5.0) side out units box
region			box_with_hole sphere 75 75 75 $(v_np_rad+5.0) side out units box
region			box_with_hole sphere 75 75 75 30 side out units box

create_atoms	0 random ${Nlig} ${seed} box_with_hole mol lig 12345
create_atoms	0 random 300 ${seed} box_with_hole mol lig 12345
create_atoms	0 random 300 314159 box_with_hole mol lig 12345
Created 1500 atoms
  using lattice units in orthogonal box = (0 0 0) to (150 150 150)
  create_atoms CPU = 0.004 seconds

pair_style		lj/expand 12.0
pair_modify		shift yes

#pair_coeff		1 1 energy sigma delta cut

#ligand-ligand interactions
pair_coeff		1 1 $(v_solvent*0.810) 4.7 0 12
pair_coeff		1 1 0.16200000000000003286 4.7 0 12
pair_coeff		2 2 $(v_solvent*0.841) 4.7 0 12
pair_coeff		2 2 0.16820000000000001616 4.7 0 12
pair_coeff		1 2 $(v_solvent*0.667) 4.7 0 12
pair_coeff		1 2 0.13340000000000001856 4.7 0 12

#solvent-ligand interactions, NOT USED IN THIS SIMULATION
pair_coeff		3 3 0.562 4.1 0 12
pair_coeff		1 3 0.755 4.3 0 12
pair_coeff		2 3 0.554 4.3 0 12

#interactions involving the NP
pair_coeff  	1 4 0.100 4.0 $(v_np_rad-2.5) 12
pair_coeff  	1 4 0.100 4.0 22.5 12
pair_coeff  	3 4 0.100 4.0 $(v_np_rad-2.5) 12
pair_coeff  	3 4 0.100 4.0 22.5 12
pair_coeff		4 4 0.100 4.0 $(2*v_np_rad-4.0) 12
pair_coeff		4 4 0.100 4.0 46 12
pair_coeff   	2 4 ${E_bind} 4.0 $(v_np_rad-2.5) 12 #this interaction controls the binding strength of ligands to the NP core
pair_coeff   	2 4 8 4.0 $(v_np_rad-2.5) 12 
pair_coeff   	2 4 8 4.0 22.5 12 

bond_style  	harmonic
bond_coeff  	1 4.54 4.7 	#C1-C1
bond_coeff		2 5.98 4.05 #SC2-SC2, hexane

angle_style		cosine/squared
angle_coeff		1 4.1826 180

special_bonds 	lj 0 1 1
Finding 1-2 1-3 1-4 neighbors ...
  special bond factors lj:    0        1        1       
  special bond factors coul:  0        0        0       
     2 = max # of 1-2 neighbors
     2 = max # of 1-3 neighbors
     2 = max # of 1-4 neighbors
     7 = max # of special neighbors
  special bonds CPU = 0.001 seconds

group			ligands type 1 2
1500 atoms in group ligands


#EQULILIBRATION: getting rid of overlaps between particles using fix nve/limit ***************

fix 			1 ligands nve/limit 0.1
fix 			2 ligands langevin 300 300 1000 12345 #langevin thermostat

timestep		30

thermo 			5000

dump      		1 all custom ${movie} pos.lammpstrj type x y z
dump      		1 all custom 25000 pos.lammpstrj type x y z
dump_modify		1 sort id

run				10000
Generated 0 of 6 mixed pair_coeff terms from geometric mixing rule
Neighbor list info ...
  update every 1 steps, delay 10 steps, check yes
  max neighbors/atom: 2000, page size: 100000
  master list distance cutoff = 60
  ghost atom cutoff = 60
  binsize = 30, bins = 5 5 5
  1 neighbor lists, perpetual/occasional/extra = 1 0 0
  (1) pair lj/expand, perpetual
      attributes: half, newton on
      pair build: half/bin/newton
      stencil: half/bin/3d
      bin: standard
Per MPI rank memory allocation (min/avg/max) = 8.169 | 8.182 | 8.191 Mbytes
   Step          Temp          E_pair         E_mol          TotEng         Press     
         0   0              9.548594e+12   1.6970038e-25  9.548594e+12   7.7597873e+11
      5000   143.55007     -203.80055      307.63575      745.67844      3.0664713    
     10000   141.66484     -220.66641      318.27356      731.02113      0.67235878   
Loop time of 1.96999 on 18 procs for 10000 steps with 1501 atoms

Performance: 13157.409 ns/day, 0.002 hours/ns, 5076.161 timesteps/s
99.5% CPU use with 18 MPI tasks x 1 OpenMP threads

MPI task timing breakdown:
Section |  min time  |  avg time  |  max time  |%varavg| %total
---------------------------------------------------------------
Pair    | 0.048989   | 0.1009     | 0.14633    |   9.1 |  5.12
Bond    | 0.041291   | 0.056075   | 0.071403   |   3.7 |  2.85
Neigh   | 0.51237    | 0.51623    | 0.52196    |   0.4 | 26.20
Comm    | 1.1151     | 1.1865     | 1.2714     |   4.2 | 60.23
Output  | 6.4733e-05 | 7.2765e-05 | 9.6627e-05 |   0.0 |  0.00
Modify  | 0.05284    | 0.070985   | 0.086167   |   3.9 |  3.60
Other   |            | 0.03922    |            |       |  1.99

Nlocal:        83.3889 ave         106 max          55 min
Histogram: 2 0 2 0 3 4 2 1 2 2
Nghost:        2472.56 ave        2604 max        2266 min
Histogram: 1 0 2 2 0 3 3 2 1 4
Neighs:        352.611 ave         547 max         179 min
Histogram: 2 3 1 0 5 2 0 2 0 3

Total # of neighbors = 6347
Ave neighs/atom = 4.2285143
Ave special neighs/atom = 3.5976016
Neighbor list builds = 909
Dangerous builds = 0

#PRODUCTION RUN ******************************************************************************

unfix 			1
fix 			1 ligands nve
undump			1
# define spherical region in center of sim. box
# region			center sphere $(v_Lbox/2) $(v_Lbox/2) $(v_Lbox/2) $(v_np_rad+5.0) units box
# delete atoms in the region
# delete_atoms	region center mol yes
# put NP in the hole
# create_atoms	4 single $(v_Lbox/2) $(v_Lbox/2) $(v_Lbox/2) units box

dump      		2 all custom ${movie} pos2.lammpstrj type x y z
dump      		2 all custom 25000 pos2.lammpstrj type x y z
dump_modify		2 sort id

group           nps     type 4
1 atoms in group nps
group           amines  type 2
300 atoms in group amines

# count coordination number of NP
compute coords nps coord/atom cutoff $(v_np_rad + v_coor_del) 2
compute coords nps coord/atom cutoff 29 2
dump 3 nps custom ${movie} coords.dmp c_coords
dump 3 nps custom 25000 coords.dmp c_coords
# equivalent calculation below
# compute coords nps coord/atom cutoff 28 group amines
# dump 4 nps custom ${movie} coords2.dmp type c_coords2



run				${trajsteps}
run				25000000
Generated 0 of 6 mixed pair_coeff terms from geometric mixing rule
Neighbor list info ...
  update every 1 steps, delay 10 steps, check yes
  max neighbors/atom: 2000, page size: 100000
  master list distance cutoff = 60
  ghost atom cutoff = 60
  binsize = 30, bins = 5 5 5
  2 neighbor lists, perpetual/occasional/extra = 1 1 0
  (1) pair lj/expand, perpetual
      attributes: half, newton on
      pair build: half/bin/newton
      stencil: half/bin/3d
      bin: standard
  (2) compute coord/atom, occasional
      attributes: full, newton on
      pair build: full/bin
      stencil: full/bin/3d
      bin: standard
Per MPI rank memory allocation (min/avg/max) = 7.544 | 7.556 | 7.565 Mbytes
   Step          Temp          E_pair         E_mol          TotEng         Press     
     10000   141.66484     -220.66641      318.27356      731.02113      0.67235878   
     15000   293.13468     -324.48367      669.29698      1655.4815      8.2631843    
     20000   301.03093     -414.15665      638.5566       1570.374       6.3781824    
     25000   303.3348      -491.21006      657.14132      1522.2064      3.168953     
     30000   300.33232     -583.25478      641.79344      1401.389       3.9843299    
     35000   299.85396     -611.99028      626.53001      1355.2513      6.2730632    
     40000   299.9631      -665.24427      615.78213      1291.7374     -10.441183    
     45000   306.88163     -733.61513      665.02355      1303.5422     -7.0137422    
     50000   300.64404     -788.81541      648.24378      1203.6725      1.6708768    
     55000   303.27844     -841.04966      644.65848      1159.632       3.3303684    
     60000   303.65995     -912.8882       665.6808       1110.5216      9.7479191    
     65000   303.57224     -990.70732      611.01784      977.64728     -13.574255    
     70000   314.85868     -1017.3506      613.25687      1003.7071      16.898987    
     75000   302.54591     -1038.8298      647.92696      961.84502     -16.739703    
     80000   310.11754     -1058.0608      650.77382      979.3152       2.4060196    
     85000   302.10532     -1074.9236      620.94417      896.79843      9.6609536    
     90000   292.75652     -1110.511       650.98216      849.44857     -4.1780942    
     95000   292.36965     -1116.4254      651.32777      842.14994      8.5479617    
    100000   299.14277     -1151.1255      602.97428      789.38043     -11.793476    
    105000   293.52434     -1156.379       628.73306      784.76449     -12.291171    
    110000   296.28052     -1184.2993      619.84912      760.28374      6.6169203    
    115000   299.33109     -1226.6452      623.22335      734.95177     -13.422154    
    120000   302.5142      -1233.9583      604.03158      722.67936      0.48207625   
    125000   299.80294     -1284.9327      652.69382      708.24458      15.858254    
    130000   297.18816     -1303.3992      608.62971      634.02267      8.9780471    
    135000   306.30045     -1322.6415      647.20724      694.10096      8.5759543    
    140000   292.2153      -1327.6956      627.17439      606.03621     -23.007154    
    145000   310.58758     -1369.4469      637.9606       657.21753     -4.5945684    
    150000   299.10757     -1356.1681      648.49441      629.70052      12.222281    
    155000   310.43536     -1401.0076      630.83994      617.85556      0.96218808   
    160000   303.80378     -1419.0593      628.99113      568.30386      1.1013017    
    165000   294.86198     -1427.8104      650.00513      540.58606      5.1094204    
    170000   310.39732     -1445.1855      640.6428       583.31043      8.9287142    
    175000   295.54468     -1458.8522      650.14017      512.73177     -3.0278346    
    180000   303.51366     -1471.3888      618.19365      503.87968      10.456116    
    185000   295.56034     -1494.4542      635.21683      462.27647      15.39567     
    190000   288.69329     -1505.0965      610.7762       396.48946      1.3931727    
    195000   297.27619     -1501.7558      639.05537      466.48537      12.724004    
    200000   294.62316     -1526.3685      619.55072      410.50576     -15.489386    
    205000   306.78895     -1551.098       630.62935      451.25069      23.869507    
    210000   314.43479     -1557.5618      636.06797      484.41178     -16.80593     
    215000   300.83912     -1560.7697      610.76382      395.11058     -8.3787668    
    220000   298.22136     -1569.4498      650.17488      414.13692     -11.23485     
    225000   309.22982     -1594.261       640.49701      428.86906      2.5772669    
    230000   298.76794     -1603.9741      622.66871      354.55032      12.320532    
    235000   293.74002     -1634.6532      643.54         322.26161      8.496685     
    240000   306.33184     -1618.6241      621.89388      372.94527      0.37898531   
    245000   306.02345     -1636.4522      644.28874      376.13313     -6.3486924    
    250000   305.33309     -1637.3326      622.0252       349.90253     -8.2653445    
    255000   303.75639     -1668.4526      660.59541      350.30299     -19.104561    
    260000   304.24922     -1665.9942      612.2018       306.57124      6.656224     
    265000   295.59834     -1694.9171      646.53204      273.29865      5.0484946    
    270000   300.47359     -1707.5464      604.63818      240.57387      7.3034796    
    275000   298.87598     -1722.5254      610.18098      223.99434     -7.9686275    
    280000   305.94414     -1712.811       638.65899      293.79009     -18.019263    
    285000   294.46121     -1729.9465      672.51672      259.16955     -6.0919863    
    290000   297.5819      -1749.1622      631.28584      212.67634      5.2097923    
    295000   300.96741     -1730.0509      626.08798      241.72706     -11.168687    
    300000   293.87174     -1749.4214      569.65505      134.19745      16.390081    
    305000   305.1949      -1769.8625      637.38685      232.1164       7.9170755    
    310000   295.70194     -1804.0901      627.59637      145.65324      9.7647539    
    315000   300.99165     -1778.5012      599.5136       166.81075     -7.1776968    
    320000   295.86752     -1800.987       644.58679      166.48707     -26.483167    
    325000   293.87027     -1800.139       604.71692      118.53508     -3.5358089    
    330000   294.7347      -1815.2856      623.18485      125.72143     -10.820737    
    335000   294.11598     -1833.8381      602.23607      83.453719      1.263591     
    340000   302.44401     -1837.071       651.58524      166.80647      6.0859018    
    345000   298.75134     -1814.8594      633.44188      154.36403     -15.032899    
    350000   301.85517     -1821.907       600.93287      128.68528     -22.042477    
    355000   298.71695     -1850.9682      592.44065      77.100173     -14.139387    
    360000   291.60769     -1884.6138      626.19878      45.425701      12.921963    
    365000   291.63115     -1873.2875      607.24821      37.906349      16.845286    
    370000   313.12643     -1909.97        622.23993      112.32553      17.862778    
    375000   291.8913      -1895.4981      620.52878      30.139503     -5.0085438    
    380000   301.40681     -1907.8923      649.05927      88.821631      21.067018    
    385000   312.88721     -1922.2202      623.30869      100.07447      4.859148     
    390000   297.30351     -1905.3498      639.87263      63.830752     -11.831691    
    395000   305.28168     -1899.7431      627.66843      92.905404     -2.6746527    
    400000   299.97575     -1909.6552      628.24555      59.846478      7.2512414    
    405000   301.67767     -1920.7716      642.00528      70.099456     -8.9918456    
    410000   296.90566     -1916.2705      617.52208      28.780617      5.1275525    
    415000   286.30868     -1910.0613      640.41192      10.498342      1.0044369    
    420000   306.93751     -1921.4545      606.94434      57.873519      22.195125    
    425000   296.32551     -1933.2405      613.25671      4.9513527     -17.758144    
    430000   309.69034     -1937.5181      603.46778      50.641795     -7.1478557    
    435000   307.18656     -1943.6128      601.65144      31.535826      9.2614712    
    440000   302.33483     -1939.5843      629.23304      41.452787      4.8552458    
    445000   298.6519      -1931.9486      607.75501      11.143293      2.8123781    
    450000   288.40027     -1955.0186      623.42727     -42.091732     -6.3072847    
    455000   300.92303     -1925.2871      610.04634      30.250884      9.7665712    
    460000   314.5726      -1956.4189      634.98572      85.088589     -4.7583794    
    465000   291.62185     -1940.3934      635.76102     -0.72840085     9.6700983    
    470000   306.87683     -1958.4655      604.17763      17.824426     -8.7123791    
    475000   303.45124     -1964.9435      613.4736       5.3258584     -7.6000036    
    480000   291.21317     -1971.9813      608.03729     -61.867312     -21.793101    
    485000   307.32269     -1965.4688      593.21468      1.8517362      7.3299837    
    490000   292.7076      -1950.2887      580.81023     -60.719872      11.504052    
    495000   294.87915     -1979.3663      613.49866     -47.399511      5.3847871    
    500000   294.91609     -1983.3302      608.02348     -56.673464     -4.8710063    
    505000   300.09289     -1948.1674      645.43872      39.051162     -3.6382584    
    510000   299.77992     -1948.9301      591.62337     -16.926225      7.7952292    
    515000   287.48653     -1925.0618      621.0923      -18.555372     -9.0717923    
    520000   303.4217      -1955.597       630.85095      31.917595     -6.0177138    
    525000   300.74532     -1957.5076      612.20385     -0.6067461      4.0073445    
    530000   290.87387     -1944.6493      629.49808     -14.591598      11.961397    
    535000   302.62722     -1973.2415      587.82298     -32.307155      0.10204964   
    540000   301.1411      -1961.6046      594.37567     -20.76232       4.1163629    
    545000   298.42851     -1966.4837      612.06875     -20.07689      -15.868002    
    550000   306.59894     -1967.0075      650.14901      54.011272     -22.615036    
    555000   293.86384     -1968.5246      645.80415     -8.7920492     -13.255899    
    560000   288.66355     -1967.5888      616.79063     -60.121407      19.828148    
    565000   294.58142     -1996.3676      625.47472     -53.755957      2.6782307    
    570000   293.60186     -1996.5714      601.23899     -82.575368      1.9221094    
    575000   303.20593     -1998.9416      591.86995     -51.372745     -5.9687728    
    580000   302.21328     -1972.5994      598.77025     -22.568573      3.0739326    
    585000   294.06277     -1997.781       626.53816     -56.424918      23.414217    
    590000   301.67398     -1984.333       595.03254     -40.451238      5.8532458    
    595000   291.51466     -2017.7078      632.01934     -82.263666     -5.7185517    
    600000   300.13901     -2018.5808      592.42652     -84.168148     -2.9075504    
    605000   300.19508     -2039.1499      606.8824      -90.03078      -1.1430386    
    610000   307.31874     -2032.0068      637.20077     -20.717859      7.1358954    
    615000   296.09151     -2039.2345      618.11587     -97.229781      1.7560005    
    620000   290.15158     -2023.3095      617.58426     -108.3951      -4.3396856    
    625000   303.42843     -2024.8304      597.78983     -70.346784      6.7318388    
    630000   294.69606     -2019.4483      603.51112     -98.287713      1.112651     
    635000   297.24439     -2009.4259      600.37141     -80.01084       19.170505    
    640000   300.88798     -2034.9785      593.24967     -96.394004      20.408329    
    645000   297.59669     -2035.5436      606.68674     -98.238054      22.877077    
    650000   300.72526     -2030.822       602.48161     -83.733048     -15.250651    
    655000   314.78047     -2048.8437      579.59914     -61.793394     -0.090459316  
    660000   287.68834     -2031.6412      600.27958     -145.04521      8.0415222    
    665000   294.63399     -2038.5984      597.0238      -124.20267      15.864902    
    670000   295.64224     -2040.3986      631.69846     -86.8201        2.0144424    
    675000   302.35378     -2029.6171      627.14661     -50.581742      25.064245    
    680000   297.28138     -2054.6819      631.33051     -94.142441     -7.8313612    
    685000   307.92515     -2054.3543      619.54848     -58.006281      8.3973041    
    690000   292.58972     -2056.4503      610.1807      -138.03803      12.724396    
    695000   301.06809     -2054.3829      590.89226     -117.35047     -9.099965     
    700000   298.13754     -2048.0976      579.62521     -135.43535      2.3571061    
    705000   306.01291     -2055.4338      622.79965     -64.384598      25.366521    
    710000   301.72891     -2051.5483      625.7578      -76.695668     -17.430251    
    715000   288.32043     -2046.7175      599.64392     -157.93093      35.432966    
    720000   296.31069     -2028.3598      575.99864     -127.49236      27.60836     
    725000   300.84643     -2047.4871      580.33946     -121.99854     -1.2955984    
    730000   311.18192     -2046.2304      587.41685     -67.452305      11.958739    
    735000   298.18366     -2029.9342      637.34593     -59.34499       6.3495428    
    740000   311.60341     -2019.9805      655.13342      28.398724     -12.311141    
    745000   308.653       -2012.0662      608.78511     -23.227143      9.7951713    
    750000   303.76445     -2049.1542      616.32399     -74.633982     -8.54686      
    755000   299.8599      -2022.4083      637.69449     -43.975736      35.367697    
    760000   302.45962     -2019.6981      607.97646     -59.359621     -2.1768404    
    765000   300.17006     -2033.7272      632.92637     -58.675953      1.1876185    
    770000   301.94064     -2037.5175      576.59004     -110.88596     -0.37076943   
    775000   306.93018     -2031.0652      587.68214     -71.032234     -2.6103501    
    780000   302.14925     -2036.4862      597.90518     -87.606737     -8.3911029    
    785000   304.70812     -2068.8445      608.20922     -98.219805      16.895572    
    790000   298.56322     -2043.8852      629.56389     -79.380993      0.84205182   
    795000   301.74186     -2046.8035      613.09483     -84.555964     -0.92438634   
    800000   284.33112     -2028.0576      589.93035     -166.82164     -7.2755536    
    805000   292.01965     -2053.1902      609.57705     -137.93048     -9.9359112    
    810000   297.01714     -2043.6117      619.56789     -96.016288     -21.110365    
    815000   304.45687     -2039.1315      609.11372     -68.725689     -0.58292882   
    820000   302.89029     -2041.4657      606.31461     -80.863408     -7.8899511    
    825000   304.31741     -2065.7458      616.91912     -88.158132     -14.537807    
    830000   305.38158     -2065.9329      617.87279     -82.633405     -3.7319672    
    835000   291.54232     -2046.1613      597.59855     -145.01435      12.273171    
    840000   288.92415     -2077.5274      611.20966     -174.47577      13.061906    
    845000   294.19578     -2077.3019      617.88019     -144.00909      6.0651273    
    850000   300.39143     -2093.7701      598.36083     -152.2946       18.573483    
    855000   301.44358     -2102.4662      622.14772     -132.49939      20.340342    
    860000   295.1869      -2087.8335      593.29869     -174.69067     -12.168729    
    865000   300.94887     -2102.6904      599.85591     -157.22741      1.3536757    
    870000   299.11423     -2067.6725      619.98765     -110.28081      1.5883309    
    875000   293.28398     -2097.5813      599.8928      -186.35269     -4.5547483    
    880000   302.63221     -2081.2296      602.94614     -125.14975     -3.0136788    
    885000   289.84658     -2089.6557      589.17167     -204.51761      17.303905    
    890000   310.80261     -2073.3807      606.86916     -76.8462       -5.5786103    
    895000   290.02154     -2097.8759      614.19964     -186.92764      3.1940898    
    900000   297.95896     -2068.3705      614.71496     -121.41699     -23.658496    
    905000   298.2893      -2072.0873      606.11841     -132.25326     -13.071899    
    910000   310.48383     -2088.8632      598.34955     -102.27363      36.450942    
    915000   305.13038     -2074.6294      581.44225     -128.88361      4.0638272    
    920000   294.37767     -2081.7698      606.60363     -158.94026     -8.6729342    
    925000   309.69464     -2080.6676      584.86086     -111.09537      9.5358817    
    930000   309.33617     -2097.4646      588.49363     -125.86246     -9.354682     
    935000   296.81377     -2071.4769      640.2516      -104.10712      7.6237189    
    940000   296.54429     -2075.2789      577.74955     -171.61602      10.179168    
    945000   303.11867     -2077.3766      619.93598     -102.13191     -4.0034009    
    950000   297.52061     -2096.8258      593.86771     -172.67946      17.655292    
    955000   301.80967     -2100.3513      600.61542     -150.27995     -3.4174095    
    960000   300.89681     -2049.0296      625.75417     -77.901133      1.6857877    
    965000   297.39446     -2072.7146      620.83328     -122.16672      4.706639     
    970000   300.95534     -2060.4589      606.40925     -108.41357     -11.135533    
    975000   291.24957     -2049.7374      591.22893     -156.26902      17.109448    
    980000   299.77892     -2063.1121      613.76324     -108.97287      4.8167685    
    985000   296.47928     -2053.1773      598.69999     -128.85467     -9.9979113    
    990000   303.20496     -2077.5489      566.51656     -155.33774      13.547605    
    995000   297.51042     -2096.8402      593.033       -173.57412     -14.030479    
   1000000   300.91022     -2087.2263      603.9406      -137.85136      6.8381815    
   1005000   300.26222     -2091.4615      595.1693      -153.75525     -0.21402077   
   1010000   300.0455      -2101.8709      603.49686     -156.80604     -7.8246497    
   1015000   302.77556     -2079.9456      582.5557      -143.61523     -11.640843    
   1020000   292.13606     -2107.9063      600.01277     -201.69042     -2.9112718    
   1025000   302.86188     -2080.1345      625.32557     -100.64836      16.498909    
   1030000   291.76014     -2119.1546      599.47357     -215.1587      -5.8107503    
   1035000   288.38049     -2107.0538      624.2256      -193.41697      4.6796057    
   1040000   296.59733     -2105.4302      659.37901     -119.90074     -13.874906    
   1045000   311.13889     -2084.3956      636.32198     -56.90473       15.027966    
   1050000   305.84527     -2089.5421      617.2465      -104.79558      2.9147274    
   1055000   309.32295     -2054.6755      609.32853     -62.297472      0.85348794   
   1060000   296.68271     -2084.9565      645.06413     -113.36018     -2.4729281    
   1065000   294.84534     -2095.749       609.41656     -168.01547      2.9240672    
   1070000   297.46068     -2076.2484      607.06947     -139.16821      14.117477    
   1075000   290.7877      -2094.5518      644.73628     -149.64115      6.1909314    
   1080000   298.91878     -2098.674       603.86119     -158.2826      -9.8886806    
   1085000   297.31618     -2094.5589      613.51592     -151.67843     -8.2352417    
   1090000   294.6459      -2110.6279      632.63028     -160.57241     -10.872235    
   1095000   298.61557     -2115.1584      623.56571     -156.41831     -5.0228523    
   1100000   295.68631     -2123.3291      646.34374     -154.90831      6.331514     
   1105000   302.4977      -2104.5465      598.82236     -153.19188      6.6027994    
   1110000   293.62222     -2113.4033      607.08294     -193.47227     -6.8667918    
   1115000   299.52076     -2130.816       661.94198     -129.65224      14.612094    
   1120000   290.69304     -2117.2225      604.64618     -212.82527      3.3651204    
   1125000   293.538       -2105.0244      633.59107     -158.96177      4.0402427    
   1130000   300.06566     -2081.8408      598.20607     -141.97661      7.9170098    
   1135000   297.81068     -2086.8954      628.26445     -127.05528     -10.440237    
   1140000   293.72876     -2114.6892      620.73019     -180.63454      1.6907514    
   1145000   307.00436     -2100.7581      588.75101     -139.32457     -13.187784    
   1150000   296.70065     -2097.9593      607.74893     -163.59794      6.3154108    
   1155000   292.45878     -2084.7963      611.02906     -166.12112     -3.9058506    
   1160000   291.20231     -2080.3188      602.83684     -175.45377     -14.867622    
   1165000   295.71074     -2088.3149      590.14973     -175.97886     -13.511099    
   1170000   293.65666     -2086.7681      617.13649     -156.62954      15.185294    
   1175000   298.91497     -2112.1625      611.75811     -163.89125     -5.486323     
   1180000   302.6211      -2073.476       598.99958     -121.39239     -25.320479    
   1185000   299.77945     -2102.3932      611.52688     -150.48792      5.1226913    
   1190000   294.27495     -2108.4863      610.87455     -181.84518      9.7176198    
   1195000   284.89925     -2099.4481      613.43514     -212.16716     -20.085419    
   1200000   312.42342     -2090.1027      612.34335     -80.846998      1.7444612    
   1205000   298.52356     -2112.077       610.52489     -166.78906     -3.4257052    
   1210000   284.67246     -2138.8334      602.71924     -263.28242      1.4982046    
   1215000   293.59355     -2131.9107      614.91237     -204.27842      16.618984    
   1220000   304.12        -2126.9476      597.7279      -169.43379      7.1060093    
   1225000   302.39892     -2124.2665      619.83446     -152.34145      15.685195    
   1230000   303.16756     -2115.6533      604.56316     -155.56278     -4.4927423    
   1235000   296.52286     -2121.9678      608.08688     -188.06346     -2.5869325    
   1240000   300.58925     -2106.7332      614.68285     -148.05111      15.366653    
   1245000   294.41345     -2094.5045      627.471       -150.64768     -16.090887    
   1250000   299.63846     -2111.6807      590.52723     -181.40547     -8.1462056    
   1255000   305.33254     -2104.1337      605.2773      -133.64897      13.038889    
   1260000   298.91329     -2084.5602      610.90171     -137.15294      6.2682953    
   1265000   309.20782     -2072.556       604.61084     -85.410477      2.8501294    
   1270000   287.55454     -2091.5168      585.0217      -220.77688     -1.7715431    
   1275000   306.3989      -2096.6555      615.98014     -110.69993     -8.4030138    
   1280000   289.83393     -2056.8087      618.20771     -142.69116     -10.739589    
   1285000   289.15313     -2058.0023      625.20036     -139.93616     -4.8696031    
   1290000   291.01218     -2091.4887      599.40169     -190.909        11.419388    
   1295000   292.67965     -2105.4412      577.92084     -218.88665     -13.055075    
   1300000   297.17681     -2086.3749      635.99472     -121.63878     -12.888797    
   1305000   296.14172     -2062.4761      609.57887     -128.78389      5.5299834    
   1310000   309.29251     -2057.3913      587.24821     -87.229812     -14.827769    
   1315000   295.91994     -2101.4359      623.58964     -154.72458      2.7436628    
   1320000   297.36919     -2094.0061      604.35823     -160.04624      17.165094    
   1325000   298.7255      -2082.6685      624.05865     -122.9439       8.0515255    
   1330000   303.77905     -2090.836       637.32597     -95.248588     -14.081946    
   1335000   297.08264     -2098.1348      622.85017     -146.96423      12.103655    
   1340000   305.04805     -2095.5803      618.09131     -113.55358      10.83295     
   1345000   300.37739     -2095.5197      639.5816      -112.88617     -7.5705932    
   1350000   296.57329     -2095.7098      616.5165      -153.15034     -8.3013191    
   1355000   299.6062      -2107.4956      601.19649     -166.69531     -3.0238925    
   1360000   294.48743     -2108.9081      614.50959     -177.68184      9.2772283    
   1365000   307.97212     -2119.0464      621.13164     -120.90521     -4.735348     
   1370000   298.17433     -2088.4649      610.94798     -144.31541     -24.607626    
   1375000   298.60181     -2102.2062      618.39196     -148.70134      10.663413    
   1380000   295.32059     -2121.1661      582.86719     -217.85698      7.7897469    
   1385000   297.62528     -2122.1965      588.96244     -202.48741      1.8344213    
   1390000   314.16535     -2132.6999      622.27047     -105.72853     -9.1294201    
   1395000   285.91581     -2119.6099      617.48212     -223.73668      25.479213    
   1400000   303.93155     -2144.0732      636.1823      -148.94761      21.483651    
   1405000   301.96699     -2100.9957      627.529       -123.30735      8.2447628    
   1410000   296.86355     -2132.0562      634.63394     -170.08152      4.3116872    
   1415000   294.15066     -2117.2234      636.10774     -165.90481      21.252894    
   1420000   305.28715     -2105.9915      591.89982     -149.0871       16.995064    
   1425000   299.18272     -2135.9548      634.60314     -163.64142     -6.5092032    
   1430000   307.26903     -2127.6288      578.94723     -174.8157      -6.5320463    
   1435000   293.41549     -2132.8391      622.22018     -198.69512     -4.0197036    
   1440000   302.80962     -2151.1693      616.83804     -180.40437      6.0102203    
   1445000   305.23609     -2126.8602      602.72111     -159.36293     -2.9186008    
   1450000   298.80215     -2143.0874      612.55311     -194.52558     -1.2995092    
   1455000   297.59994     -2153.5742      627.04431     -195.89659      0.1989374    
   1460000   296.95063     -2150.6712      639.86227     -183.07875     -12.390731    
   1465000   295.5433      -2146.8364      610.12593     -215.27286      13.426762    
   1470000   293.88928     -2144.0692      632.13424     -197.8928       10.128583    
   1475000   299.47877     -2162.6563      621.67455     -201.94779     -0.5783008    
   1480000   302.7538      -2118.9683      627.73289     -137.55805      22.193704    
   1485000   301.46656     -2172.726       626.47135     -198.33282     -8.5189157    
   1490000   312.37039     -2161.8867      618.5182      -146.69329      26.730483    
   1495000   304.30178     -2152.4087      600.45641     -191.35353     -10.510072    
   1500000   292.448       -2151.2562      592.6252      -251.03315      13.496085    
   1505000   307.3398      -2150.2568      616.93992     -159.13454      22.228321    
   1510000   310.97688     -2146.141       630.278       -125.41847      7.6329808    
   1515000   300.49729     -2149.7493      591.59569     -214.56558     -6.5787281    
   1520000   301.74185     -2142.9415      608.68074     -185.10805     -18.826091    
   1525000   295.66125     -2146.988       595.69335     -229.32959     -4.9246813    
   1530000   295.94228     -2128.2634      613.64513     -191.39667      3.5130994    
   1535000   300.15637     -2111.7436      635.58581     -134.09413      5.8454382    
   1540000   299.78834     -2161.0026      609.76139     -210.82303     -11.761945    
   1545000   301.29387     -2156.6194      611.99569     -197.47401      14.044914    
   1550000   294.87427     -2153.0157      580.43944     -254.13003     -6.7831345    
   1555000   309.61412     -2149.4129      586.57671     -178.48484      5.3309936    
   1560000   304.95514     -2134.3626      591.29267     -179.54988     -11.990794    
   1565000   291.60998     -2125.1559      599.14874     -222.15627     -24.744364    
   1570000   305.80101     -2142.2626      580.30545     -194.65513     -5.4064569    
   1575000   300.02741     -2144.4694      631.563       -171.41931     -0.8917578    
   1580000   313.37217     -2158.2581      617.89287     -139.2108      -15.569164    
   1585000   297.70795     -2113.1517      647.11854     -134.9169       11.436517    
   1590000   307.62799     -2140.4331      618.86342     -146.09882     -8.5505809    
   1595000   309.24649     -2163.8246      622.88114     -158.23588      17.018055    
   1600000   305.46771     -2127.7792      620.89676     -141.07064      17.353165    
   1605000   294.92706     -2127.6638      641.29163     -167.68985      5.2205018    
   1610000   300.86506     -2126.5802      612.25189     -169.09594     -15.297689    
   1615000   300.277       -2112.1202      582.73536     -186.78185     -22.612623    
   1620000   302.14591     -2119.4127      635.56244     -132.89093      1.7870156    
   1625000   298.59967     -2114.0619      578.81239     -200.14619      3.9449195    
   1630000   289.55212     -2105.9389      610.06499     -201.22405      13.712523    
   1635000   306.92588     -2049.9283      595.65601     -81.940628     -11.632098    
   1640000   303.42172     -2070.4491      593.24913     -120.53618     -16.438993    
   1645000   294.66549     -2082.8902      631.41598     -133.9614      -0.92363833   
   1650000   305.44643     -2071.7594      623.79704     -82.245648      1.238482     
   1655000   296.92814     -2104.9191      606.1485      -171.14098      6.470798     
   1660000   310.27874     -2078.544       598.05886     -93.162161      12.605916    
   1665000   300.77409     -2129.3367      601.48418     -183.02691      21.558943    
   1670000   299.93359     -2128.6946      613.62158     -174.00547      4.5671413    
   1675000   297.27071     -2125.622       630.87139     -165.58932     -10.000382    
   1680000   300.40925     -2117.6954      614.65989     -159.84119      1.7060554    
   1685000   288.79306     -2127.0666      625.23906     -210.57166     -11.305646    
   1690000   303.86023     -2129.4313      625.61603     -145.19085      8.0142147    
   1695000   303.49335     -2125.8112      599.07328     -169.75391     -8.1387286    
   1700000   305.87317     -2114.5367      645.11171     -101.80022      6.4810449    
   1705000   301.55626     -2101.241       611.99959     -140.9185      -12.630357    
   1710000   289.73898     -2098.9053      640.98074     -162.43924     -1.1905904    
   1715000   300.42707     -2096.6308      634.42919     -118.92753      1.4160177    
   1720000   303.5488      -2088.2872      609.41102     -121.64423     -5.3771994    
   1725000   301.43997     -2083.4695      632.70567     -102.96082      19.555769    
   1730000   299.36548     -2090.7674      615.33911     -136.9008       6.1645604    
   1735000   303.20104     -2095.0811      608.22999     -131.17403      4.668453     
   1740000   286.53318     -2081.7746      621.42708     -179.19604     -1.8736601    
   1745000   299.85021     -2092.4277      619.31857     -132.41439     -9.7761475    
   1750000   300.71983     -2096.3901      644.57644     -107.23059     -17.290963    
   1755000   300.14725     -2062.1617      588.01395     -132.12487      1.5833225    
   1760000   297.73172     -2086.3666      647.27534     -107.86869      24.634236    
   1765000   291.0898      -2103.7409      621.58513     -180.63071      0.46741556   
   1770000   302.99749     -2091.9842      607.52548     -129.6918      -1.6824775    
   1775000   302.24378     -2086.6752      607.21211     -128.06616      9.2712481    
   1780000   293.14949     -2079.0756      615.77031     -152.57083     -8.1676782    
   1785000   285.98798     -2063.9882      594.62161     -190.65279      9.9374065    
   1790000   302.28832     -2054.3005      621.8812      -80.823197     -7.6078631    
   1795000   297.37033     -2075.6396      593.96133     -152.07158      0.63388      
   1800000   297.55458     -2071.9318      571.86884     -169.6325       12.551433    
   1805000   295.80702     -2070.1888      588.16976     -159.4022      -14.474201    
   1810000   297.02521     -2062.9326      620.95238     -113.91661      18.487185    
   1815000   297.74612     -2078.6178      604.22824     -143.10262     -11.588735    
   1820000   302.82892     -2062.8512      580.6945      -128.14351      11.878446    
   1825000   301.4481      -2080.457       628.97215     -103.64554      14.460759    
   1830000   304.20543     -2089.2667      597.85695     -131.2419      -7.1961029    
   1835000   303.91331     -2076.6819      608.08462     -109.73547      4.1560775    
   1840000   308.44244     -2058.3628      653.67991     -25.570361      12.975183    
   1845000   297.78689     -2094.681       633.83463     -129.37719      19.282778    
   1850000   299.67704     -2093.5858      608.43981     -145.22551     -12.374253    
   1855000   302.02147     -2088.4891      618.5129      -119.57318      24.129533    
   1860000   295.11051     -2098.7483      628.2918      -150.95392     -1.5437217    
   1865000   306.65104     -2097.4831      615.51585     -110.86455     -33.976371    
   1870000   296.27634     -2095.4167      632.01195     -138.68953      8.4561092    
   1875000   309.05274     -2084.9488      631.60587     -71.501676     -1.1069951    
   1880000   299.57269     -2089.1895      609.74961     -139.98593      8.033111     
   1885000   302.99888     -2095.6108      585.26278     -155.57487     -24.95498     
   1890000   304.72033     -2120.0791      582.01685     -175.5921       2.4891032    
   1895000   294.37489     -2095.3629      618.24396     -160.90552      13.41876     
   1900000   300.15544     -2083.5964      620.9391      -120.59776     -3.3388887    
   1905000   297.82706     -2095.9524      638.5602      -125.74334     -1.031599     
   1910000   299.69581     -2090.2814      575.94057     -174.33642      15.303816    
   1915000   305.79683     -2086.8875      617.1083      -102.49579      11.189666    
   1920000   292.78307     -2098.3706      626.83491     -162.43958     -6.7590459    
   1925000   301.73533     -2108.7214      591.37677     -168.22104     -8.333463     
   1930000   315.07395     -2106.2841      630.11456     -67.406102      3.7919786    
   1935000   303.50488     -2124.4367      612.71736     -154.68374      4.4784317    
   1940000   296.34743     -2119.5856      642.10687     -152.44563     -16.9953      
   1945000   304.33727     -2103.0843      620.17657     -122.15032      11.84509     
   1950000   292.27012     -2118.3429      607.66151     -203.8788       11.707264    
   1955000   300.92647     -2084.9571      609.63523     -129.81496     -4.7285072    
   1960000   303.36434     -2120.6373      627.63217     -136.59789      6.7844941    
   1965000   301.74894     -2124.9064      612.2149      -163.5071      -5.9204814    
   1970000   299.11938     -2105.1355      612.59881     -155.10958      5.9594771    
   1975000   309.40064     -2106.2444      607.97395     -114.87364     -4.5335797    
   1980000   304.78342     -2112.3709      606.01885     -143.59982      5.3364969    
   1985000   301.69026     -2097.3947      609.29415     -139.17848      10.619536    
   1990000   303.68149     -2116.3712      603.50702     -155.03892     -0.49547683   
   1995000   296.40988     -2099.8683      627.71658     -146.83941      27.930257    
   2000000   306.11307     -2094.9712      617.24158     -109.03219      12.697756    
   2005000   289.07494     -2101.7348      646.5308      -162.68777     -9.9879208    
   2010000   307.35599     -2079.7312      616.00851     -89.467928      11.394296    
   2015000   307.61327     -2057.881       601.70364     -80.7723        15.016708    
   2020000   301.58325     -2088.5147      623.82584     -116.24535      0.87825639   
   2025000   304.22226     -2088.9295      570.17405     -158.51228     -3.2622899    
   2030000   304.32146     -2112.3996      602.31575     -149.39714     -3.6878154    
   2035000   287.94828     -2094.6532      614.03387     -193.14062      10.083042    
   2040000   300.52952     -2123.7044      622.18779     -157.7845       6.4792432    
   2045000   290.98526     -2110.825       619.28188     -190.48543      3.1937125    
   2050000   298.14641     -2117.2426      622.67965     -161.48621     -3.1143563    
   2055000   296.40543     -2109.2244      610.9188      -173.01316     -7.5119912    
   2060000   292.77177     -2097.9612      593.09844     -195.81718     -25.977477    
   2065000   303.97361     -2087.9964      592.5054      -136.35958     -12.665449    
   2070000   292.1251      -2106.3397      604.2046      -195.98092     -1.8812426    
   2075000   287.05561     -2109.928       597.29752     -229.14309      17.422015    
   2080000   305.32508     -2120.4303      586.0189      -169.23729      9.6493699    
   2085000   309.27274     -2115.5631      598.60375     -134.13441     -12.964849    
   2090000   293.17509     -2117.4375      606.38657     -200.20206     -10.666816    
   2095000   294.77785     -2109.9769      608.55847     -183.40327      4.8098028    
   2100000   305.08304     -2115.8103      629.8896      -121.82877      1.4782135    
   2105000   288.21426     -2111.6818      605.32744     -217.68644     -0.044477814  
   2110000   290.3661      -2115.4746      624.20514     -192.98013     -2.4046226    
   2115000   300.6671      -2111.1042      630.05895     -136.69798     -12.798492    
   2120000   305.38641     -2106.4474      630.58193     -110.41711     -30.15231     
   2125000   298.30975     -2135.9829      618.93094     -183.24485      7.7335765    
   2130000   309.02355     -2135.0214      601.57941     -151.73124     -1.8732318    
   2135000   307.24356     -2119.2812      624.56911     -120.96001      9.4906884    
   2140000   294.08614     -2111.3587      602.73985     -193.69645     -7.8888082    
   2145000   309.30931     -2121.5965      610.11794     -128.49011     -19.91611     
   2150000   280.41912     -2107.2184      612.11742     -241.28679      1.7493207    
   2155000   308.46417     -2102.7701      619.43099     -104.12951     -9.5695293    
   2160000   301.99255     -2103.5821      602.88567     -150.42285     -19.785035    
   2165000   298.42015     -2099.9733      587.82832     -177.84429     -1.4947557    
   2170000   292.94392     -2090.381       607.68333     -172.88238     -3.6495644    
   2175000   299.63225     -2111.0443      601.50027     -169.82382      7.1187847    
   2180000   301.34164     -2083.7277      583.84623     -152.51819      11.651685    
   2185000   302.62703     -2070.037       609.6984      -107.22804     -31.103963    
   2190000   305.12156     -2084.0193      581.0788      -138.67641      6.9081088    
   2195000   300.49965     -2091.8505      628.18968     -120.06232     -3.255363     
   2200000   291.45555     -2104.8657      617.60521     -184.10002      5.4367524    
   2205000   298.44654     -2114.3991      621.02281     -158.95766     -2.416874     
   2210000   304.6638      -2104.9686      625.07288     -117.67833      2.8663098    
   2215000   301.89633     -2097.57        622.34887     -125.37776     -13.45292     
   2220000   291.8855      -2096.528       595.80801     -195.6372      -4.8354041    
   2225000   301.2459      -2114.701       594.81561     -172.95017     -3.5306666    
   2230000   287.99063     -2096.577       616.7006      -192.20833      18.788676    
   2235000   296.86009     -2106.6561      598.00365     -181.32714      9.3582878    
   2240000   307.58206     -2111.8671      639.95224     -96.649319      10.170057    
   2245000   306.37382     -2107.5606      590.13128     -147.56607     -1.3973425    
   2250000   303.09618     -2070.3175      619.75324     -95.355996     -2.6821254    
   2255000   295.65033     -2092.582       603.65875     -167.00704     -10.283432    
   2260000   293.26653     -2074.6116      620.66382     -142.69006      14.827087    
   2265000   296.89014     -2073.5464      619.93027     -126.1565       7.5357491    
   2270000   302.52073     -2095.7609      589.7164      -153.40919      10.124267    
   2275000   295.49027     -2066.7299      587.09412     -158.43525     -18.758939    
   2280000   302.06537     -2084.2958      582.78544     -150.91115      40.207816    
   2285000   288.11557     -2083.5364      621.41403     -173.89567      18.783346    
   2290000   299.96366     -2098.6421      650.06065     -107.37938     -13.589327    
   2295000   311.83784     -2103.5221      626.30149     -82.926594      0.40771487   
   2300000   288.95687     -2103.0938      590.34999     -220.75551     -0.92747248   
   2305000   299.05234     -2099.204       630.05279     -132.02383      15.917874    
   2310000   294.98255     -2094.4133      636.85006     -138.63287     -6.8926406    
   2315000   305.40558     -2092.4605      596.43138     -130.49506      22.280555    
   2320000   297.25635     -2089.8131      609.43813     -151.2779      -6.9463651    
   2325000   296.2949      -2122.5922      639.54901     -158.24498     -12.22515     
   2330000   308.81731     -2124.8147      574.90503     -169.12104     -13.109452    
   2335000   295.85813     -2099.4536      618.9892      -157.61908      1.9606868    
   2340000   309.80573     -2098.3739      599.10498     -114.0609      -18.502848    
   2345000   300.2798      -2095.7687      614.19164     -138.96147     -8.6506635    
   2350000   290.47877     -2092.9899      578.39175     -215.80511     -4.9089522    
   2355000   289.41974     -2101.8094      632.46529     -175.28624      10.098033    
   2360000   295.67512     -2103.0835      647.06804     -133.98841      2.8377352    
   2365000   301.5431      -2097.9682      615.26287     -134.4413      -19.823212    
   2370000   302.83603     -2121.7568      602.00136     -165.71036      4.590804     
   2375000   300.22167     -2131.198       623.84138     -165.00092     -12.245206    
   2380000   304.11664     -2162.1783      601.90148     -200.50587      7.4602765    
   2385000   289.66668     -2128.6076      631.34305     -202.1025      -18.639334    
   2390000   301.27434     -2154.9475      620.86629     -187.01888     -10.083664    
   2395000   297.99644     -2159.1597      611.99432     -214.7592      -5.424871     
   2400000   299.18349     -2150.5221      665.79354     -147.0148      -8.9524402    
   2405000   296.12538     -2159.3666      634.74522     -200.58112      35.868972    
   2410000   298.19811     -2142.2989      578.59789     -230.39315      4.8831867    
   2415000   305.0366      -2125.0727      629.59601     -131.59246      14.346838    
   2420000   295.13653     -2144.407       608.22106     -216.5671       26.122673    
   2425000   300.57076     -2132.9122      588.63636     -200.35939      17.063017    
   2430000   288.75328     -2137.6557      621.45301     -225.12465     -27.288049    
   2435000   288.14721     -2137.0578      562.87022     -285.81944      15.653734    
   2440000   298.04612     -2151.8851      605.23986     -214.01691     -6.1535677    
   2445000   299.54716     -2118.3729      652.52298     -126.5101       15.820275    
   2450000   295.16602     -2145.1186      600.56051     -224.80733      11.481587    
   2455000   297.85507     -2142.1726      609.06082     -201.33769      1.7480724    
   2460000   314.8576      -2137.0483      610.82067     -118.4316      -4.9927054    
   2465000   301.47477     -2171.9351      609.62174     -214.3548      -8.4619453    
   2470000   297.17478     -2147.5937      629.35943     -189.50193      14.504171    
   2475000   306.74853     -2115.3264      606.63965     -137.14817      13.375362    
   2480000   303.16397     -2120.1846      635.35316     -129.32011      7.8506464    
   2485000   285.59996     -2131.8808      622.15128     -232.75071     -17.095124    
   2490000   304.13856     -2155.1384      622.44505     -172.82442     -9.1266549    
   2495000   295.75112     -2140.2502      598.12045     -219.76291     -13.437369    
   2500000   296.30512     -2145.1589      572.75642     -247.55859      2.3446445    
   2505000   305.41648     -2111.2323      620.8429      -124.80665      2.4670253    
   2510000   287.41155     -2116.3307      603.63774     -227.61409      24.583266    
   2515000   292.08636     -2102.5498      605.88394     -190.68489     -21.467746    
   2520000   305.96735     -2109.7691      603.34461     -138.37869     -14.685995    
   2525000   298.5312      -2107.6497      640.72218     -132.13028      14.845465    
   2530000   303.12222     -2118.7336      631.73857     -131.67041      8.1235598    
   2535000   305.45476     -2083.1889      639.35469     -78.080334      1.8771163    
   2540000   299.87922     -2103.6272      605.17027     -157.63243     -4.5948162    
   2545000   293.9727      -2093.7265      625.6         -153.71132     -13.450733    
   2550000   293.79324     -2044.2719      601.37154     -129.28754     -4.4593897    
   2555000   302.27961     -2076.1841      635.28349     -89.343435      4.298491     
   2560000   300.0335      -2053.8928      594.04869     -118.32977      14.416656    
   2565000   300.82048     -2040.9559      587.61321     -108.30957      4.162706     
   2570000   312.80472     -2044.5183      610.62904     -35.27213      -14.890938    
   2575000   308.12072     -2040.9636      607.60189     -55.687676     -17.772576    
   2580000   299.2753      -2044.4039      633.06156     -73.218124     -27.267646    
   2585000   292.15444     -2039.9786      622.6369      -111.05638     -2.5485707    
   2590000   297.8162      -2065.4072      602.64229     -131.16459      6.5176793    
   2595000   297.24209     -2068.1654      629.47569     -109.6564      -20.670592    
   2600000   293.45784     -2041.1418      589.52287     -139.50579     -15.0466      
   2605000   307.47521     -2044.3631      622.93433     -46.640979      3.1280266    
   2610000   298.86954     -2057.589       599.73975     -121.53927      1.5749571    
   2615000   300.76769     -2070.5957      620.47666     -105.32206      2.6455813    
   2620000   287.9191      -2044.9108      575.02642     -182.5362       3.1733628    
   2625000   297.91724     -2099.9643      661.16361     -106.74862     -8.8502322    
   2630000   308.87987     -2082.8389      623.79722     -77.973323      12.558985    
   2635000   305.12574     -2097.2624      594.87982     -138.09979      7.2625963    
   2640000   295.70867     -2085.8514      586.74179     -176.93257     -3.3695945    
   2645000   312.89962     -2086.5498      611.11937     -76.388978      10.157524    
   2650000   296.94013     -2090.768       588.01696     -175.0679       1.4167812    
   2655000   303.85744     -2090.3923      601.39014     -130.39021     -3.8482997    
   2660000   303.12335     -2122.9677      614.90461     -152.73342      16.380707    
   2665000   310.42224     -2114.4771      608.55197     -117.96047     -6.9686183    
   2670000   298.96678     -2116.8356      588.12256     -191.96821      0.091949736  
   2675000   285.83071     -2104.7942      618.04376     -208.73989      0.8103987    
   2680000   294.9276      -2087.3277      641.7038      -126.93919      7.3265608    
   2685000   310.89245     -2087.5991      622.04417     -75.487896     -4.0466775    
   2690000   308.35579     -2094.5964      595.84762     -120.02375     -16.78058     
   2695000   299.14808     -2102.1984      599.08811     -165.55489      7.601801     
   2700000   301.58576     -2097.3837      630.01067     -118.9182      -5.1962359    
   2705000   299.66188     -2095.8249      585.19295     -170.77924     -3.7983567    
   2710000   306.09664     -2089.5723      622.32285     -98.625524     -6.2321885    
   2715000   306.00107     -2117.4268      611.84546     -137.38478     -5.8423384    
   2720000   297.37429     -2116.4444      589.39619     -197.42379      13.718272    
   2725000   296.21934     -2133.2131      598.85937     -209.89338      3.2555134    
   2730000   312.56652     -2170.3121      617.64123     -155.11872      20.345637    
   2735000   299.16727     -2124.1288      623.59375     -162.89387      5.3842112    
   2740000   295.76115     -2140.0389      623.43555     -194.19168     -6.5357695    
   2745000   297.09209     -2124.7373      637.63838     -158.73629     -11.893685    
   2750000   301.24645     -2152.4708      638.07458     -167.45859     -4.9150696    
   2755000   300.57542     -2143.4491      641.45044     -158.06131     -2.7195384    
   2760000   283.09554     -2143.7602      605.20026     -272.77893      6.3148116    
   2765000   299.96821     -2087.2027      631.97015     -114.01012      0.32590573   
   2770000   300.95847     -2133.2581      627.99306     -159.61493      4.938546     
   2775000   290.18938     -2130.7055      624.44381     -208.76257     -13.383702    
   2780000   313.26943     -2144.8034      620.87618     -123.2322       22.444323    
   2785000   294.5871      -2102.8099      600.11138     -185.53621     -9.3000934    
   2790000   294.64411     -2151.3953      595.37605     -238.60202     -9.4194633    
   2795000   301.40483     -2147.1614      616.02459     -183.49102      0.25465427   
   2800000   310.17497     -2153.3822      608.50301     -158.02017     -0.79322353   
   2805000   299.30292     -2137.5301      586.84011     -212.44229      1.0878269    
   2810000   309.97749     -2114.2114      589.29648     -138.9389      -0.81633021   
   2815000   298.25857     -2121.8735      635.59958     -152.69566     -10.411283    
   2820000   291.38367     -2115.4155      593.74173     -218.83466      11.038201    
   2825000   290.56827     -2121.7703      612.55817     -210.01893      2.277641     
   2830000   308.66111     -2119.2946      628.60548     -110.59891      19.677454    
   2835000   301.26861     -2124.8934      603.01684     -174.83974      13.937822    
   2840000   290.27722     -2107.406       634.64079     -174.87331      1.5072078    
   2845000   296.74245     -2100.5083      610.89149     -162.81748     -12.669429    
   2850000   303.19747     -2118.2155      611.67545     -150.879       -4.7691267    
   2855000   294.49767     -2126.3201      594.1785      -215.37923     -8.1758693    
   2860000   308.42996     -2137.394       601.88913     -156.44818     -2.281067     
   2865000   304.52527     -2132.0303      610.02679     -160.40552     -6.0133247    
   2870000   307.89594     -2141.9455      599.25034     -166.0262       6.0237669    
   2875000   310.85934     -2118.6144      620.18393     -108.51148     -6.6189612    
   2880000   301.46613     -2142.995       621.1518      -173.92326     -11.173847    
   2885000   293.83845     -2156.1437      592.37614     -249.95262     -14.119305    
   2890000   297.03198     -2128.4667      605.60569     -194.7671      -12.685548    
   2895000   304.04389     -2132.0095      589.34638     -183.21743     -4.6361504    
   2900000   296.84516     -2149.0877      625.14437     -196.68477     -3.0198399    
   2905000   295.29668     -2126.6532      622.42998     -183.88829      4.2364768    
   2910000   296.98399     -2143.4269      606.87749     -208.67017     -1.5260027    
   2915000   302.90033     -2128.6354      605.08476     -169.21819     -13.452769    
   2920000   315.53987     -2136.532       603.3541      -122.33126      12.980844    
   2925000   298.65966     -2152.7887      648.24801     -169.16912     -0.65872053   
   2930000   298.87859     -2134.739       603.12819     -195.26034      1.2292556    
   2935000   299.58538     -2153.2561      591.69997     -222.04545      14.759802    
   2940000   303.76214     -2147.2587      594.26068     -194.81213     -21.661569    
   2945000   299.84174     -2131.8323      583.41        -207.76535     -14.601417    
   2950000   302.88555     -2144.0851      589.26024     -200.55839     -4.6095952    
   2955000   302.02118     -2147.4676      615.82792     -181.23797      20.790011    
   2960000   288.84234     -2150.5657      616.38722     -242.70228      9.6771933    
   2965000   302.02646     -2151.6008      585.59655     -215.57904      0.37021707   
   2970000   306.69637     -2172.5256      569.88458     -231.33557     -1.5849452    
   2975000   296.79136     -2141.595       579.89083     -234.68616     -20.950013    
   2980000   288.97575     -2144.6405      634.37479     -218.19295      0.94361824   
   2985000   289.07295     -2140.1306      616.00401     -231.61927     -24.279845    
   2990000   301.33776     -2124.98        609.32448     -168.30955      11.441903    
   2995000   299.25176     -2131.5114      620.67573     -172.81673     -2.1839041    
   3000000   294.42155     -2145.7295      620.91506     -208.39238      6.9876882    
   3005000   300.258       -2136.3877      590.10085     -203.76873      5.9903152    
   3010000   302.08759     -2144.5238      624.74949     -169.07574      5.2475393    
   3015000   292.8824      -2144.5999      602.58439     -232.47533     -3.2890276    
   3020000   289.11937     -2159.4332      604.006       -262.7123      -8.8370221    
   3025000   298.94382     -2147.7066      573.73828     -237.32624     -18.995148    
   3030000   304.35014     -2178.9309      575.82618     -242.28982     -5.9427641    
   3035000   312.63107     -2153.0046      604.38808     -150.77571     -27.48662     
   3040000   297.15746     -2147.1396      623.84872     -194.63598      4.5855797    
   3045000   299.4203      -2167.5054      607.0359      -221.69693     -4.9775053    
   3050000   292.42532     -2157.416       612.17472     -237.74484      1.8743555    
   3055000   284.29733     -2162.072       609.1199      -281.79757     -13.786086    
   3060000   299.6604      -2164.4168      596.19633     -228.3744       15.528019    
   3065000   303.77668     -2189.9589      600.85279     -230.85528     -7.8992966    
   3070000   293.47313     -2190.4669      603.78917     -274.49624      0.067991758  
   3075000   293.26768     -2179.1571      582.78307     -285.11116      1.8844741    
   3080000   300.42984     -2179.3698      601.50311     -234.58028     -8.6078714    
   3085000   297.94104     -2180.6092      625.45847     -222.99225      1.4808932    
   3090000   299.27325     -2157.5786      615.01931     -204.4442       13.572245    
   3095000   293.65662     -2163.1397      672.86632     -177.27145      4.0018694    
   3100000   303.16475     -2159.5976      614.16667     -189.91616      6.6743502    
   3105000   304.79452     -2178.1354      606.1945      -209.13902     -10.644094    
   3110000   308.07597     -2159.6483      595.4851      -186.68931      11.27097     
   3115000   298.57151     -2182.4592      627.13743     -220.34436      9.5219338    
   3120000   302.81074     -2170.773       597.33264     -219.50845     -4.7418282    
   3125000   306.94831     -2165.9625      586.4582      -207.07244      2.5190825    
   3130000   308.71226     -2177.3222      626.04747     -170.95581     -8.5033134    
   3135000   296.34522     -2160.9771      623.21104     -212.74289      5.5834653    
   3140000   286.53999     -2173.666       611.8939      -280.59023     -1.2973642    
   3145000   297.96162     -2178.187       607.63747     -238.29904     -8.3429793    
   3150000   305.76766     -2172.6013      592.57015     -212.8782       2.8350496    
   3155000   313.02903     -2181.167       622.89115     -158.65578      11.468506    
   3160000   289.99687     -2150.4502      586.97011     -266.84176     -2.8648216    
   3165000   299.75419     -2163.9447      583.80588     -239.87333      34.851394    
   3170000   303.93694     -2178.5428      630.57111     -189.00429      8.9258142    
   3175000   304.71887     -2163.1754      597.28729     -203.42448      9.5174859    
   3180000   302.18206     -2165.6659      613.61907     -200.92582      21.628265    
   3185000   294.66422     -2166.7214      611.01947     -238.19481     -3.2890315    
   3190000   297.22956     -2138.8415      636.52231     -173.34193      5.187478     
   3195000   309.42014     -2128.9847      656.25577     -89.244945      6.2382816    
   3200000   315.16734     -2131.6272      614.28986     -108.15635      7.8102111    
   3205000   308.38959     -2139.297       623.31587     -137.10499      4.373601     
   3210000   301.25663     -2140.0154      614.8966      -178.13562      6.4910057    
   3215000   291.12273     -2143.8574      609.82865     -232.35641      0.73152889   
   3220000   304.51314     -2136.8451      570.87191     -204.42945      6.9966331    
   3225000   297.38346     -2123.0791      594.6722      -198.7415       0.65173416   
   3230000   287.41177     -2174.2139      588.43026     -300.70384     -3.8016191    
   3235000   301.45428     -2149.5798      624.29344     -177.4195      -5.046492     
   3240000   309.06696     -2137.1028      594.74141     -160.45652     -13.4029      
   3245000   299.08233     -2170.5802      631.45136     -201.86739      7.3490707    
   3250000   311.54639     -2174.3736      611.28294     -170.09975     -5.8008129    
   3255000   302.99364     -2152.4441      610.48344     -187.21087      10.113008    
   3260000   295.96767     -2140.736       616.48215     -200.91871     -2.874509     
   3265000   305.10421     -2135.9087      617.42575     -154.29641      3.5770777    
   3270000   301.56116     -2153.7698      627.55404     -177.87095     -18.06183     
   3275000   293.54565     -2136.9649      639.49373     -184.96538      4.7527792    
   3280000   307.04287     -2128.162       637.37644     -117.93085      6.4130951    
   3285000   312.83279     -2120.1428      610.0704      -111.32972     -6.1393985    
   3290000   305.95364     -2143.9027      615.89404     -160.02413      17.731175    
   3295000   297.445       -2099.2874      623.44319     -145.90369     -13.079506    
   3300000   299.70224     -2113.992       629.34064     -144.61821      4.9544822    
   3305000   303.64869     -2127.7933      593.75804     -176.35667     -3.3234518    
   3310000   304.41543     -2129.5991      619.37892     -149.11336      2.7811777    
   3315000   298.02239     -2153.4946      610.87281     -210.09961      0.028503923  
   3320000   296.88278     -2131.6504      614.19987     -190.02373     -8.4063745    
   3325000   298.24802     -2138.551       624.78229     -180.23764      9.7418242    
   3330000   296.81183     -2124.9273      621.83824     -175.97952      8.1632866    
   3335000   298.59346     -2119.634       597.69222     -186.86622      12.802124    
   3340000   289.81651     -2130.5019      613.39461     -221.27535      0.66129461   
   3345000   306.92432     -2113.5726      587.41883     -153.82911      3.6618912    
   3350000   300.97007     -2116.8156      621.85116     -149.26255      14.903045    
   3355000   305.32911     -2106.266       615.88855     -125.18536     -12.204252    
   3360000   294.80312     -2129.1924      604.52735     -206.53686     -6.339262     
   3365000   302.52874     -2103.2503      615.31493     -135.26428     -18.60258     
   3370000   307.5403      -2116.3671      630.16129     -111.12702     -8.8800414    
   3375000   310.28041     -2100.12        610.49568     -102.2939      -5.8345342    
   3380000   296.62823     -2104.9263      602.59146     -176.04619     -3.3309628    
   3385000   288.99924     -2089.6537      594.69035     -202.78556      1.7797222    
   3390000   282.65285     -2091.2699      608.54887     -218.91932     -6.7565284    
   3395000   297.7636      -2089.4607      601.39412     -156.70144     -4.8733741    
   3400000   303.41462     -2084.2758      614.17436     -113.46942     -6.1872211    
   3405000   298.68581     -2107.12        586.09227     -185.5392       25.309463    
   3410000   298.29217     -2072.4894      605.4643      -133.29669      4.7155045    
   3415000   308.20613     -2083.3457      611.98583     -93.303987      13.9042      
   3420000   309.32982     -2100.9563      589.03909     -128.83705      6.7753683    
   3425000   301.46008     -2116.0211      600.92474     -167.20349     -9.9533712    
   3430000   304.84154     -2063.5169      588.21407     -112.29078     -12.408669    
   3435000   302.83742     -2080.8723      595.09025     -131.73084      0.08527885   
   3440000   298.19151     -2073.4507      634.11196     -106.0604      -7.1882873    
   3445000   294.38339     -2058.336       627.55148     -114.53303      4.3120462    
   3450000   306.09215     -2047.7411      594.72151     -84.415783      2.2778347    
   3455000   307.67698     -2046.2358      613.48685     -57.058975      3.5986491    
   3460000   303.71653     -2061.2191      657.6614      -45.575777      13.075849    
   3465000   298.10947     -2073.9925      633.42962     -107.65137     -2.1030901    
   3470000   295.52075     -2053.0789      592.63997     -139.1021      -11.054633    
   3475000   292.0096      -2085.2144      616.07782     -163.4989      -5.8332855    
   3480000   295.57148     -2081.6437      623.17777     -136.90226     -6.9889323    
   3485000   302.03684     -2076.6763      590.30464     -135.90004     -15.421839    
   3490000   294.26497     -2064.85        594.22011     -154.90794     -4.5930996    
   3495000   296.45034     -2073.9597      619.42868     -129.03776      8.3335625    
   3500000   304.98246     -2064.3065      636.30442     -64.359876      1.8620643    
   3505000   303.34986     -2061.8455      634.64931     -70.853754     -1.3720671    
   3510000   297.32681     -2078.6798      638.57201     -110.69568     -31.873988    
   3515000   302.45654     -2100.4926      600.55418     -147.59021      2.79471      
   3520000   312.7318      -2097.0144      622.00134     -76.721942      0.76757538   
   3525000   311.65247     -2081.0518      604.88545     -82.701112      5.9375644    
   3530000   289.13772     -2071.5135      574.29943     -204.41713      2.6103697    
   3535000   312.16427     -2093.6914      625.9422      -71.995571     -16.415251    
   3540000   299.69287     -2093.5555      634.20554     -119.35863     -9.2678952    
   3545000   307.77904     -2072.27        621.64148     -74.482275     -12.981996    
   3550000   295.14768     -2077.8498      672.33249     -85.848563     -13.395528    
   3555000   289.84914     -2063.1856      603.53519     -163.67254      8.8805875    
   3560000   308.82364     -2053.6982      612.82738     -60.053901      0.87880527   
   3565000   291.43429     -2085.4269      606.99349     -175.36799      0.82889511   
   3570000   292.21357     -2076.8454      618.45225     -151.84342      10.438563    
   3575000   297.86291     -2035.3697      608.75283     -94.807751      1.3864495    
   3580000   309.92406     -2051.2566      641.63387     -23.885537      18.298041    
   3585000   297.94077     -2044.218       601.76183     -110.29894      5.2408835    
   3590000   289.17966     -2054.7494      619.48194     -142.28299     -0.27594877   
   3595000   292.95634     -2065.6317      621.94508     -133.81579     -5.6992891    
   3600000   298.54045     -2031.8732      600.08257     -96.952096     -10.286632    
   3605000   300.05346     -2036.2577      609.02414     -85.630048      5.442938     
   3610000   296.22237     -2044.541       623.45155     -96.615517     -1.7945099    
   3615000   303.52655     -2049.5058      609.75251     -82.620864      6.5456961    
   3620000   300.42042     -2023.5612      595.63839     -84.678501     -1.5895677    
   3625000   303.3299      -2013.6574      631.93635     -25.467882     -5.2910085    
   3630000   299.07861     -2022.1076      615.56867     -69.294195      6.3256889    
   3635000   299.69789     -2031.826       616.20303     -75.609277      1.811986     
   3640000   300.00734     -2044.706       617.58168     -85.726915      16.567767    
   3645000   309.8668      -2047.4929      628.20357     -33.808172     -26.163555    
   3650000   300.12209     -2006.3469      597.78201     -66.654522      18.691086    
   3655000   290.27119     -2041.2039      603.44377     -139.89515      1.9442981    
   3660000   290.108       -2017.6847      575.93832     -144.61109     -6.509033     
   3665000   298.38581     -2016.7947      594.43212     -88.215448     -10.573351    
   3670000   296.38993     -2029.2469      617.29601     -86.727758      7.4249391    
   3675000   287.1778      -2013.3519      631.54157     -97.776624     -22.763093    
   3680000   288.44785     -2019.7815      633.8804      -96.188761     -6.9441925    
   3685000   297.14115     -2045.2673      623.30287     -93.382435     -0.17367796   
   3690000   302.13169     -2034.8941      597.99904     -85.999299     -1.595218     
   3695000   311.58952     -2023.3578      616.37645     -13.797601      13.048245    
   3700000   289.46955     -2042.344       612.06554     -135.99788     -7.2633035    
   3705000   292.18415     -2049.9514      620.60913     -122.92411      19.31756     
   3710000   300.07162     -2037.8042      608.73904     -87.380415      12.137208    
   3715000   291.89027     -2041.3815      622.88485     -113.39248      25.449626    
   3720000   294.84675     -2029.4884      592.52086     -118.64432     -20.399547    
   3725000   304.11626     -2027.1734      613.57598     -53.828171     -3.7561428    
   3730000   302.43762     -2052.0992      631.5844      -68.251156      13.553995    
   3735000   307.09663     -2037.4583      627.02127     -37.341969     -5.3538357    
   3740000   306.86776     -2051.0182      582.05546     -96.891043     -0.0025709778 
   3745000   296.06886     -2060.1284      600.23186     -136.109        3.1737405    
   3750000   305.15034     -2049.7266      613.2099      -72.123852     -8.4935955    
   3755000   289.00134     -2027.7277      601.5065      -134.03407      25.899935    
   3760000   302.06229     -2048.4         611.13563     -86.678911      0.81233093   
   3765000   295.74721     -2038.1923      619.80098     -96.042003     -8.9187846    
   3770000   307.56553     -2060.8189      613.96979     -71.657512     -4.9368329    
   3775000   298.80912     -2035.9129      583.65129     -116.22176     -5.751102     
   3780000   298.03798     -2061.5368      612.41089     -116.53402     -14.037932    
   3785000   290.31318     -2039.9141      626.76078     -115.10069      12.557558    
   3790000   304.96574     -2047.7189      608.24521     -75.906227     -20.227489    
   3795000   282.03991     -2039.1012      621.81072     -156.22935      0.9670301    
   3800000   304.53963     -2006.7874      602.10463     -43.020628      6.8797097    
   3805000   291.34196     -2046.1676      596.62652     -146.88845      0.50188458   
   3810000   301.95968     -2051.6922      620.43508     -81.130454     -13.94203     
   3815000   294.85126     -2072.1601      588.99332     -164.82344     -12.233881    
   3820000   303.2035      -2041.4947      604.32911     -81.477552      2.7693845    
   3825000   295.6574      -2053.3581      622.30841     -109.10191     -9.1844358    
   3830000   287.67204     -2046.1387      601.24164     -158.6535      -9.2788128    
   3835000   295.39531     -2050.3811      611.55745     -118.04774      11.103802    
   3840000   306.53294     -2056.927       633.24379     -53.108449     -6.0954951    
   3845000   305.16267     -2044.438       575.70096     -104.2891       6.3480676    
   3850000   306.57322     -2045.431       611.18308     -63.493058      12.074429    
   3855000   311.42322     -2069.6209      600.55473     -76.626021     -31.239111    
   3860000   290.17946     -2060.8788      609.64421     -153.77981     -5.0765364    
   3865000   288.71016     -2072.7648      602.12554     -179.75405     -6.5950443    
   3870000   295.22272     -2074.0984      601.63088     -152.46324     -11.558304    
   3875000   298.56628     -2080.5266      610.64475     -134.92779      1.0598863    
   3880000   300.03234     -2088.2775      586.71415     -160.05422      14.737291    
   3885000   303.33983     -2104.2005      615.1928      -132.71004     -2.9833866    
   3890000   295.15679     -2104.3349      605.40813     -179.21729     -5.3739232    
   3895000   291.20569     -2110.1239      572.47331     -235.60732      3.5634871    
   3900000   298.55969     -2138.7726      608.86038     -194.98764      4.6375992    
   3905000   308.07713     -2132.1341      646.5809      -108.07414      5.3250536    
   3910000   295.288       -2130.2444      609.72496     -200.22324     -21.45353     
   3915000   296.21067     -2123.0875      603.63406     -195.03186     -17.871935    
   3920000   283.5324      -2131.1437      636.79997     -226.60938     -7.7741505    
   3925000   292.56701     -2152.9133      623.03854     -221.74469     -9.6774588    
   3930000   298.83625     -2149.1466      614.89539     -198.09006     -19.223364    
   3935000   306.13137     -2128.9245      609.99217     -150.15313     -3.0414053    
   3940000   300.2366      -2127.8491      608.65044     -176.77627      23.782729    
   3945000   315.30816     -2136.9533      626.52067     -100.62203     -7.9507424    
   3950000   286.98177     -2156.2257      590.32129     -282.74715      15.048441    
   3955000   300.04072     -2125.9917      581.1813      -203.26385     -8.0642179    
   3960000   303.38161     -2108.9475      576.40435     -176.05878      5.2382226    
   3965000   307.32772     -2142.9099      634.85036     -133.93116     -1.5216019    
   3970000   299.96669     -2117.0772      623.02367     -152.83793     -19.673935    
   3975000   299.52276     -2113.0494      612.2489      -161.56985     -18.751147    
   3980000   297.37003     -2131.4038      616.36273     -185.43572      14.131485    
   3985000   304.26101     -2147.3329      610.46068     -176.45584      20.043994    
   3990000   308.94635     -2136.2081      612.4414      -142.40117      12.927246    
   3995000   299.73992     -2135.8195      597.72998     -197.88782      7.2950574    
   4000000   295.61669     -2138.5124      648.11955     -168.62699      4.9447944    
   4005000   279.90271     -2161.856       605.13753     -305.21331      21.915933    
   4010000   296.38968     -2146.5879      615.19126     -206.17458     -18.905028    
   4015000   297.65474     -2155.6334      624.75678     -199.99824      2.4247655    
   4020000   295.64301     -2171.3028      596.6063      -252.81298     -18.142588    
   4025000   291.02739     -2145.961       593.72137     -250.99361      8.1964811    
   4030000   295.59038     -2175.6206      628.95089     -225.02154      2.0229102    
   4035000   298.11143     -2148.6218      628.59929     -187.10218      16.006948    
   4040000   304.59457     -2133.3024      597.8073      -173.58732      21.684907    
   4045000   293.67871     -2135.0621      612.01907     -209.94239     -4.9073116    
   4050000   305.76493     -2151.4725      608.31292     -176.01885      9.5656491    
   4055000   312.01243     -2139.8306      612.52675     -132.22921     -13.054335    
   4060000   296.14987     -2128.7324      616.48197     -188.10063     -12.040348    
   4065000   300.86925     -2155.6234      615.7588      -194.61349     -3.3720478    
   4070000   304.85068     -2123.7032      607.9854      -152.66481     -13.777253    
   4075000   295.19179     -2131.0897      602.1404      -209.08328      0.6340623    
   4080000   312.52072     -2133.3665      594.81548     -141.20367      15.168311    
   4085000   300.48688     -2132.7386      578.849       -210.3481      -6.8387043    
[...]
  23945000   300.81048     -2198.5065      603.41742     -250.10068      33.137135    
  23950000   301.35811     -2209.2406      590.30692     -271.49676     -0.0074968218 
  23955000   309.58278     -2194.7312      640.10576     -170.41429     -11.724763    
  23960000   294.59643     -2187.738       611.19733     -259.33663     -18.963889    
  23965000   297.87509     -2205.5549      626.10545     -247.58582      26.659267    
  23970000   293.56714     -2171.4049      594.93809     -263.86496      7.7669093    
  23975000   306.36873     -2166.3655      625.47777     -171.04724      8.928158     
  23980000   296.49778     -2178.3002      638.67271     -213.92211     -7.1200317    
  23985000   297.05184     -2154.9797      618.72315     -208.07393     -27.997441    
  23990000   307.79981     -2153.98        603.61752     -174.1233       6.0317687    
  23995000   304.87719     -2148.3157      590.45569     -194.68854      6.7422812    
  24000000   290.80204     -2144.1097      617.84597     -226.02526     -0.79934553   
  24005000   307.65044     -2163.8186      595.62592     -192.62142     -9.9664141    
  24010000   297.30029     -2174.0739      608.9663      -235.81409     -4.1444921    
  24015000   301.97072     -2160.604       611.9655      -198.46243      3.8497762    
  24020000   314.84851     -2146.159       616.21975     -122.18382      18.259456    
  24025000   299.66196     -2159.7642      604.0922      -215.81896      4.5057393    
  24030000   309.05636     -2154.5892      624.73225     -147.99954      4.6677533    
  24035000   285.87876     -2181.5609      608.30222     -295.0333       7.3347396    
  24040000   304.65903     -2179.6809      581.6601      -235.82474      4.7536947    
  24045000   297.16655     -2169.3176      606.90348     -233.71858     -10.676123    
  24050000   306.3743      -2169.7932      613.1307      -186.7971      -6.6484963    
  24055000   287.90799     -2157.6363      621.5872      -248.75054      31.707542    
  24060000   308.91855     -2140.8018      610.26567     -149.29483     -16.516528    
  24065000   301.61609     -2161.8493      619.01428     -194.24466      18.320909    
  24070000   293.64367     -2162.3763      629.27729     -220.15501      11.687374    
  24075000   304.09048     -2145.6409      594.88042     -191.10656     -14.202464    
  24080000   303.71382     -2162.2325      590.3189      -213.94377     -7.7411138    
  24085000   298.47709     -2156.4908      617.30555     -204.62999     -10.47182     
  24090000   308.60486     -2133.9223      645.81926     -108.26431      11.525465    
  24095000   311.815       -2152.1247      601.64322     -156.28957      1.1874587    
  24100000   302.20833     -2160.5479      606.494       -202.81542      28.755451    
  24105000   285.14041     -2135.4995      586.95882     -273.61661      4.675194     
  24110000   311.13321     -2140.7304      604.41042     -145.17642      5.5281575    
  24115000   293.3347      -2187.6085      599.79492     -276.251        11.944667    
  24120000   306.97691     -2164.5135      601.09442     -190.85925     -3.1516727    
  24125000   289.92998     -2171.2912      608.87546     -266.0764       1.3641883    
  24130000   300.2591      -2136.5153      581.71484     -212.27747     -11.644705    
  24135000   300.9387      -2148.1961      563.89938     -238.73503      3.7066246    
  24140000   302.26051     -2154.5181      626.1697      -176.87659      28.733229    
  24145000   303.19078     -2166.8779      587.77972     -223.46699      3.1946976    
  24150000   296.38191     -2148.4189      614.15892     -209.07273     -21.402483    
  24155000   310.90667     -2132.4578      635.34596     -106.98124     -24.382253    
  24160000   299.23766     -2162.9826      619.33219     -205.69451      24.073236    
  24165000   290.29678     -2173.516       632.23025     -243.30642      6.1346293    
  24170000   302.55456     -2166.6903      642.33397     -171.56985     -13.750645    
  24175000   295.80533     -2154.7085      595.2745      -236.82477     -1.6374273    
  24180000   294.97925     -2164.4784      591.12307     -254.43971      11.705272    
  24185000   299.94019     -2163.0131      583.58325     -238.33277      4.6940653    
  24190000   296.75959     -2123.2693      593.2248      -203.16857      10.359216    
  24195000   292.64869     -2165.1713      609.49753     -247.17859      3.0982235    
  24200000   304.53999     -2161.1676      625.16817     -174.33561     -1.7286455    
  24205000   292.89756     -2153.0638      596.89191     -246.56392      14.931933    
  24210000   296.78743     -2152.5009      631.53615     -193.96436     -0.055030093  
  24215000   297.65529     -2151.2276      591.30863     -229.03817      14.74545     
  24220000   296.80415     -2105.1173      609.64689     -168.3952       2.2175348    
  24225000   299.66061     -2102.2752      587.8111      -174.6171       5.3386521    
  24230000   299.18914     -2119.5775      621.21926     -160.61929     -14.260496    
  24235000   304.86489     -2118.0748      642.12102     -112.83727      16.862736    
  24240000   304.1763      -2112.0312      614.24438     -137.74912      0.071721242  
  24245000   289.48283     -2132.7188      585.04826     -253.33057      15.774102    
  24250000   303.69714     -2125.8531      604.42146     -163.53646     -3.3632229    
  24255000   297.24039     -2110.6775      639.37398     -142.27784      3.2439361    
  24260000   304.48017     -2116.6831      628.95285     -126.33396      9.9309472    
  24265000   289.39931     -2103.1973      583.85619     -225.37457     -23.430176    
  24270000   292.29655     -2103.1002      598.34536     -197.83406      1.7063876    
  24275000   297.51842     -2116.9823      621.24503     -165.46837     -22.950214    
  24280000   290.15982     -2114.7603      616.91272     -200.48056      1.5187421    
  24285000   302.99329     -2110.8161      607.91584     -148.15212     -7.2475833    
  24290000   285.15473     -2130.388       597.42856     -257.97131      12.708454    
  24295000   294.48478     -2125.5375      593.09247     -215.74021     -6.4160977    
  24300000   306.94713     -2126.3998      606.18501     -147.78813     -22.528712    
  24305000   290.93521     -2124.4618      603.1283      -220.49954      4.055323     
  24310000   288.4914      -2130.0311      607.80509     -232.31887     -0.35156921   
  24315000   306.96993     -2137.8602      627.56886     -137.76275      27.981702    
  24320000   302.54775     -2142.496       598.80693     -190.93305      5.2959319    
  24325000   301.52894     -2112.4957      624.96881     -139.3262      -0.25152034   
  24330000   299.47914     -2123.7097      628.12926     -156.54481      26.129035    
  24335000   304.47759     -2120.2247      643.46079     -115.37916      9.3353556    
  24340000   297.61173     -2107.6426      617.15345     -159.80314      22.191218    
  24345000   298.75594     -2118.5559      636.00385     -146.74997      14.492644    
  24350000   300.20076     -2108.0007      609.78807     -155.95046     -11.912253    
  24355000   298.84496     -2125.7644      627.9617      -161.60259      6.4064521    
  24360000   294.39813     -2116.1824      628.04713     -171.81788      30.17156     
  24365000   289.67157     -2113.3969      633.92981     -184.28317      0.76326629   
  24370000   304.1578      -2132.1676      603.008       -169.20461     -8.3460018    
  24375000   289.32381     -2135.0309      608.97409     -232.42783     -4.7430606    
  24380000   297.50104     -2107.9556      630.65922     -147.1052      -15.964956    
  24385000   291.29926     -2124.6318      630.84429     -191.32585     -10.939371    
  24390000   293.40918     -2141.6818      626.70595     -203.08029     -9.7082012    
  24395000   318.81666     -2158.8478      585.0075      -148.34244      18.807513    
  24400000   307.99825     -2143.1675      624.52675     -141.51433     -14.252527    
  24405000   301.79537     -2169.5139      602.96035     -217.16155     -5.3615304    
  24410000   298.14803     -2174.6922      652.1061      -189.50212      14.751224    
  24415000   302.83557     -2144.5001      615.09976     -175.35735     -22.79956     
  24420000   300.7788      -2144.7687      626.79618     -173.12585      1.4375037    
  24425000   302.47825     -2155.4237      564.50748     -238.47087     -9.6381208    
  24430000   304.64247     -2132.5189      562.30157     -208.09532      9.8956163    
  24435000   293.40246     -2182.3277      544.38809     -326.0741       17.197444    
  24440000   308.56541     -2160.4951      600.40926     -180.42351      1.958441     
  24445000   292.14303     -2133.9101      602.17774     -225.49801     -16.004781    
  24450000   307.32858     -2119.9698      644.06814     -101.76951      5.359761     
  24455000   309.62297     -2135.3395      604.33736     -146.61124      3.2519158    
  24460000   307.17969     -2135.9385      618.20704     -144.26502      17.110448    
  24465000   302.6265      -2119.7783      596.21857     -170.45155     -7.4346729    
  24470000   300.45317     -2141.2918      578.18707     -219.71394      2.9562174    
  24475000   299.3527      -2115.7969      624.98791     -152.33872     -19.771761    
  24480000   291.0978      -2135.6528      603.01401     -231.07791     -25.321305    
  24485000   298.35167     -2129.2045      599.37565     -195.83432     -18.133439    
  24490000   290.77372     -2166.0724      625.45396     -240.50657      1.6623522    
  24495000   301.54739     -2161.6193      602.53575     -210.80035     -9.3191918    
  24500000   297.18312     -2142.4119      634.55962     -179.08266      6.9956629    
  24505000   304.5275      -2154.874       613.2236      -180.04249     -4.4057608    
  24510000   298.88545     -2197.2529      606.23598     -254.63577     -10.929773    
  24515000   296.00497     -2182.8398      655.69095     -203.64702      12.761182    
  24520000   303.44117     -2153.4621      625.19814     -171.51321     -9.6406018    
  24525000   305.7891      -2143.5628      581.01451     -195.29941      18.510083    
  24530000   302.58142     -2129.5682      560.13925     -216.52237      2.263821     
  24535000   311.46519     -2161.2396      614.99872     -153.61301     -1.3176246    
  24540000   308.60866     -2158.7942      630.33962     -148.59886      1.8656937    
  24545000   298.06183     -2158.9198      598.47505     -227.74618     -2.4961773    
  24550000   309.10763     -2160.5443      585.50702     -192.95062     -18.963315    
  24555000   295.9115      -2126.903       644.60497     -159.21405     -16.982517    
  24560000   298.45876     -2169.4001      597.59432     -237.33245     -3.3589673    
  24565000   296.14863     -2138.3405      633.98492     -180.21133     -20.46932     
  24570000   297.38215     -2147.4405      621.7145      -196.06648      24.276754    
  24575000   297.37818     -2141.9928      580.59738     -231.7536      -1.4013795    
  24580000   304.6517      -2142.9611      632.79368     -148.00418     -13.868186    
  24585000   293.3599      -2161.756       594.48996     -255.59084      2.569523     
  24590000   294.10507     -2135.4448      612.21865     -208.21916     -8.5207172    
  24595000   303.24922     -2161.8433      605.01185     -200.939       -7.2136328    
  24600000   303.52371     -2118.5558      595.54049     -165.89552      23.438429    
  24605000   299.12807     -2135.0649      609.38687     -188.2121       14.599897    
  24610000   307.04214     -2153.0846      604.39544     -175.83773      7.2808217    
  24615000   296.65926     -2132.9037      602.28333     -204.19302      3.3155381    
  24620000   297.86898     -2139.4436      602.76752     -204.83973     -20.32633     
  24625000   304.97833     -2123.7835      615.19937     -144.96043     -1.774513     
  24630000   303.82688     -2138.2241      628.8071      -150.94172     -19.709887    
  24635000   293.46473     -2136.4447      585.34085     -238.95996      7.1182706    
  24640000   295.26381     -2118.9953      620.72736     -178.07998      21.243949    
  24645000   303.11896     -2114.3563      601.51256     -157.53363     -3.6207669    
  24650000   307.94608     -2100.1277      624.11635     -99.1182       -12.185298    
  24655000   292.54111     -2112.0771      630.18624     -173.87665     -5.9027507    
  24660000   308.45689     -2109.3179      629.92783     -100.21302      0.36761398   
  24665000   297.99779     -2101.1515      596.76958     -171.96967      22.643611    
  24670000   307.19985     -2124.7868      562.59662     -188.63355      13.619483    
  24675000   300.07519     -2138.1966      581.09792     -215.39796     -3.86682      
  24680000   299.63392     -2131.4112      615.35471     -176.32882     -14.457293    
  24685000   295.69257     -2144.847       606.45649     -216.28542      17.416479    
  24690000   303.09146     -2124.6397      633.69183     -135.76074     -12.140066    
  24695000   309.47269     -2157.9577      596.67981     -177.55898      10.88169     
  24700000   317.64362     -2135.6732      595.89663     -119.52365     -6.8125605    
  24705000   302.3183      -2155.0408      591.58839     -211.72229      15.216128    
  24710000   303.97642     -2119.1497      607.28721     -152.71857      8.9794461    
  24715000   300.59713     -2150.0652      623.77092     -182.25983      6.4335666    
  24720000   291.8844      -2134.6563      594.69065     -234.88769     -15.046636    
  24725000   295.04049     -2141.3512      645.83986     -176.32184      1.1086348    
  24730000   304.223       -2132.475       628.89598     -143.33249      11.607923    
  24735000   309.62349     -2114.0564      585.69802     -143.96512     -13.01205     
  24740000   303.63676     -2132.0089      626.87622     -147.50749      1.8567533    
  24745000   294.28871     -2097.9241      628.82038     -153.27562     -16.953845    
  24750000   300.69588     -2119.8977      606.48458     -168.93714      25.675328    
  24755000   303.56626     -2124.4828      642.32023     -124.85251      20.687724    
  24760000   301.49596     -2133.2113      614.6024      -170.5556      -6.6920768    
  24765000   293.61255     -2124.3096      571.95559     -239.54918     -3.647509     
  24770000   301.4665      -2114.1074      622.44652     -143.73927     -3.9743288    
  24775000   301.05194     -2108.4648      609.16931     -153.2275      -2.807623     
  24780000   294.6185      -2093.8582      638.26046     -138.2951      -10.672028    
  24785000   294.50331     -2095.5756      614.15653     -164.63146     -16.49987     
  24790000   306.35166     -2124.128       616.93317     -137.43069     -13.760346    
  24795000   301.221       -2102.0873      619.0159      -136.2475      -15.208627    
  24800000   296.97938     -2108.9754      610.92526     -170.19149      21.115579    
  24805000   301.18774     -2110.1583      607.61901     -155.8641       0.95717525   
  24810000   303.65218     -2149.8841      615.01363     -177.17627     -13.659919    
  24815000   298.41124     -2110.5139      593.08304     -183.17002     -14.379035    
  24820000   297.94725     -2119.173       587.98461     -199.00215     -8.2910647    
  24825000   306.35736     -2136.6274      606.92795     -159.90982     -19.103181    
  24830000   300.4377      -2114.9788      633.82563     -137.83157      25.224791    
  24835000   299.8875      -2139.5624      611.88899     -186.8119      -7.1554616    
  24840000   289.91247     -2147.3388      620.01036     -231.06738     -13.475765    
  24845000   308.443       -2160.0747      604.12488     -176.83479     -8.1580238    
  24850000   300.46827     -2143.4393      614.621       -185.36006      1.2472689    
  24855000   310.68735     -2123.0122      625.72578     -108.13643      3.4002167    
  24860000   304.08152     -2118.9564      621.59566     -137.74685      14.237115    
  24865000   308.07731     -2118.1354      618.91948     -121.73594     -10.780213    
  24870000   303.00319     -2150.8562      618.61555     -177.44822      7.5521924    
  24875000   301.50087     -2114.0131      585.13215     -180.80571     -11.250256    
  24880000   306.39081     -2119.9897      623.17163     -126.87888     -2.8653201    
  24885000   298.35831     -2109.636       632.00691     -143.60488      29.882886    
  24890000   295.73267     -2092.3633      604.53505     -165.54387     -9.2062989    
  24895000   298.75322     -2065.1952      618.60264     -110.80271      12.196768    
  24900000   296.21281     -2079.295       586.6519      -168.21194     -6.6005867    
  24905000   299.4181      -2085.5585      617.0512      -129.74461     -9.90294      
  24910000   295.49495     -2080.6511      595.5719      -163.85767      13.553844    
  24915000   307.50078     -2054.0323      632.6941      -46.436083      4.6100618    
  24920000   300.68174     -2063.3797      626.80412     -92.162866      6.4347272    
  24925000   295.53523     -2057.8605      628.78013     -107.67879     -5.3603955    
  24930000   294.5371      -2071.7441      604.582       -150.22342     -7.8384354    
  24935000   295.40791     -2096.362       581.81476     -193.71495      13.352148    
  24940000   302.89185     -2091.2013      602.25911     -134.6476       9.344436     
  24945000   300.91994     -2082.3165      612.59544     -124.24333      5.244648     
  24950000   300.99364     -2103.589       628.78292     -128.99873     -11.30835     
  24955000   292.27975     -2075.0978      598.28153     -169.97066     -5.9854041    
  24960000   292.58684     -2098.6764      598.09395     -192.36375     -19.720651    
  24965000   307.78069     -2051.859       652.79736     -22.907981      14.24728     
  24970000   299.73065     -2084.679       588.47252     -156.04628     -5.4037018    
  24975000   297.88491     -2080.1663      589.17441     -159.08436      7.0585712    
  24980000   300.20803     -2109.3196      608.77211     -158.2528      -15.987394    
  24985000   299.35328     -2092.7333      612.22697     -142.03347     -7.5833743    
  24990000   294.26592     -2115.0348      637.7026      -161.60593     -21.314188    
  24995000   314.55499     -2127.3413      636.92443     -83.973836      21.420822    
  25000000   310.78721     -2107.0056      600.67951     -116.72964      2.1229549    
  25005000   302.31463     -2100.5069      624.4583      -124.3349       14.272093    
  25010000   304.20929     -2101.1846      651.48737     -89.512036      25.050165    
Loop time of 14119.9 on 18 procs for 25000000 steps with 1501 atoms

Performance: 4589.262 ns/day, 0.005 hours/ns, 1770.549 timesteps/s
99.6% CPU use with 18 MPI tasks x 1 OpenMP threads

MPI task timing breakdown:
Section |  min time  |  avg time  |  max time  |%varavg| %total
---------------------------------------------------------------
Pair    | 41.678     | 960.31     | 4866.8     |4530.5 |  6.80
Bond    | 39.919     | 139.61     | 502.66     |1140.8 |  0.99
Neigh   | 4358.1     | 4389.5     | 4441.6     |  48.5 | 31.09
Comm    | 3686.6     | 8303.7     | 9424.8     |1832.0 | 58.81
Output  | 3.9725     | 4.1492     | 4.2644     |   3.8 |  0.03
Modify  | 49.246     | 155.81     | 545.28     |1170.9 |  1.10
Other   |            | 166.8      |            |       |  1.18

Nlocal:        83.3889 ave         315 max          14 min
Histogram: 8 0 8 0 0 0 0 0 0 2
Nghost:        2455.72 ave        2822 max        1711 min
Histogram: 2 0 0 0 3 5 0 0 0 8
Neighs:        1306.56 ave        6444 max          38 min
Histogram: 8 6 2 0 0 0 0 0 0 2
FullNghs:         2656 ave       13306 max          20 min
Histogram: 8 4 4 0 0 0 0 0 0 2

Total # of neighbors = 47920
Ave neighs/atom = 31.925383
Ave special neighs/atom = 3.5976016
Neighbor list builds = 2500000
Dangerous builds = 2500000
Total wall time: 3:55:21
