LAMMPS (23 Jun 2022)
OMP_NUM_THREADS environment is not set. Defaulting to 1 thread. (src/src/comm.cpp:98)
  using 1 OpenMP thread(s) per MPI task
read_restart	save.50000
Reading restart file ...
  restart file = 23 Jun 2022, LAMMPS = 23 Jun 2022
  restoring atom style molecular from restart
  orthogonal box = (0 0 0) to (150 150 150)
  4 by 4 by 4 MPI processor grid
  restoring pair style lj/expand from restart
  restoring bond style harmonic from restart
  restoring angle style cosine/squared from restart
  3001 atoms
  2400 bonds
  1800 angles
Finding 1-2 1-3 1-4 neighbors ...
  special bond factors lj:    0        1        1       
  special bond factors coul:  0        0        0       
     2 = max # of 1-2 neighbors
     2 = max # of 1-3 neighbors
     2 = max # of 1-4 neighbors
     7 = max # of special neighbors
  special bonds CPU = 0.001 seconds
  read_restart CPU = 0.021 seconds

variable 		movie equal 1000
variable		solvent equal 0.2  #0.2 is a good solvent, 0.5 is a bad solvent, 1.0 is no solvent/vacuum
variable		np_rad equal 25.0  #NP radius in Angstrom (= 0.1 nm)
variable        	coor_del equal 3.0  # in order for a ligand to be considered to be bound, it must be within this radius of the edge of the NP VDW
variable 		E_bind equal 14.0  #ligand-NP binding energy in kcal/mol
variable		Lbox equal 150.0   #edge length of cubic simulation box
variable 		Nlig equal 600	   #number of ligands
variable		seed equal 314159
variable		trajsteps equal 100000	 #number of timesteps (length of simulation)
restart			10000 save

region 			box block 0 ${Lbox} 0 ${Lbox} 0 ${Lbox} units box
region 			box block 0 150 0 ${Lbox} 0 ${Lbox} units box
region 			box block 0 150 0 150 0 ${Lbox} units box
region 			box block 0 150 0 150 0 150 units box
region			box_with_hole sphere $(v_Lbox/2) $(v_Lbox/2) $(v_Lbox/2) $(v_np_rad+5.0) side out units box
region			box_with_hole sphere 75 $(v_Lbox/2) $(v_Lbox/2) $(v_np_rad+5.0) side out units box
region			box_with_hole sphere 75 75 $(v_Lbox/2) $(v_np_rad+5.0) side out units box
region			box_with_hole sphere 75 75 75 $(v_np_rad+5.0) side out units box
region			box_with_hole sphere 75 75 75 30 side out units box

#molecule		lig ligand.mol  # for special neighbors?
#molecule		hex hexane.mol

#PRODUCTION RUN RESTARTED
fix 			1 ligands nve
fix			2 ligands langevin 300 300 1000 12345

thermo 			${movie}
thermo 			1000

dump      		2 all custom ${movie} pos2.lammpstrj type x y z
dump      		2 all custom 1000 pos2.lammpstrj type x y z
dump_modify		2 sort id

# count coordination number of NP
compute coords nps coord/atom cutoff $(v_np_rad + v_coor_del) 2
compute coords nps coord/atom cutoff 28 2
dump 3 nps custom ${movie} coords.dmp c_coords
dump 3 nps custom 1000 coords.dmp c_coords

# second shell
compute coords2 nps coord/atom cutoff 35 2
dump 4 nps custom ${movie} coords2.dmp c_coords2
dump 4 nps custom 1000 coords2.dmp c_coords2



run				${trajsteps}
run				100000
Generated 0 of 6 mixed pair_coeff terms from geometric mixing rule
Neighbor list info ...
  update every 1 steps, delay 10 steps, check yes
  max neighbors/atom: 2000, page size: 100000
  master list distance cutoff = 60
  ghost atom cutoff = 60
  binsize = 30, bins = 5 5 5
  3 neighbor lists, perpetual/occasional/extra = 1 2 0
  (1) pair lj/expand, perpetual
      attributes: half, newton on
      pair build: half/bin/newton
      stencil: half/bin/3d
      bin: standard
  (2) compute coord/atom, occasional
      attributes: full, newton on
      pair build: full/bin
      stencil: full/bin/3d
      bin: standard
  (3) compute coord/atom, occasional
      attributes: full, newton on
      pair build: full/bin
      stencil: full/bin/3d
      bin: standard
Per MPI rank memory allocation (min/avg/max) = 10.08 | 10.18 | 12.39 Mbytes
   Step          Temp          E_pair         E_mol          TotEng         Press     
     50000   302.21938     -3436.1706      1244.9679      511.373        7.2840933    
     51000   307.65023     -3440.5755      1261.6633      572.22845      7.3268093    
     52000   302.24243     -3492.8134      1257.8779      467.84625      17.854384    
     53000   302.24199     -3543.7137      1284.8624      443.92663      11.330378    
     54000   303.5498      -3623.8181      1242.8849      333.53965      6.9275069    
     55000   294.73721     -3667.2716      1253.6638      222.05914      44.058561    
     56000   310.72673     -3709.435       1313.1773      382.39438     -1.7029032    
     57000   300.26149     -3715.753       1262.7449      232.0593       2.9865003    
     58000   298.26079     -3779.9439      1304.7579      191.99025     -13.174482    
     59000   299.31278     -3828.5096      1205.8621      53.936187     -11.169925    
     60000   298.13272     -3903.7052      1272.5168      34.842595     -0.57040047   
     61000   296.01872     -3891.3315      1258.7207      14.516037     -7.165655     
     62000   300.27551     -3910.1801      1240.7887      15.80143       4.3836413    
     63000   296.17598     -3997.1268      1300.9595     -47.634307      2.2388494    
     64000   303.46291     -4027.1572      1251.1979     -62.263508      30.569308    
     65000   301.78195     -4020.5825      1254.034      -67.884445      5.6827109    
     66000   296.51448     -4038.5756      1258.1174     -128.89817      24.286984    
     67000   287.42606     -4042.0153      1256.4063     -215.32156     -11.449321    
     68000   304.59569     -4058.0219      1242.4901     -91.706146      17.633322    
     69000   302.02148     -4072.3934      1268.2622     -103.32519      23.690583    
     70000   304.54373     -4107.1597      1196.846      -186.95265     -5.3207264    
     71000   289.27762     -4133.5864      1224.4841     -322.25743      17.731518    
     72000   304.0627      -4163.0213      1253.134      -190.82784     -17.953769    
     73000   300.35766     -4221.332       1294.964      -240.44062      8.4844663    
     74000   304.1954      -4244.721       1251.405      -273.06983      15.964698    
     75000   297.38232     -4259.4721      1252.6683     -347.48326      16.733685    
     76000   305.37793     -4306.4756      1258.1451     -317.5097       37.439675    
     77000   299.49963     -4364.7986      1272.5085     -414.03561     -9.7727939    
     78000   308.3557      -4453.8632      1272.0472     -424.3666       21.313767    
     79000   293.85252     -4505.2446      1277.0786     -600.4104      -3.1136463    
     80000   303.30692     -4560.9574      1284.434      -564.22251      2.3155908    
     81000   303.95512     -4572.7966      1254.7798     -599.91931     -10.730922    
     82000   296.28633     -4567.0348      1201.6162     -715.89882     -0.86573886   
     83000   296.65304     -4616.0465      1245.6378     -717.60961     -7.050745     
     84000   303.3621      -4595.6681      1271.1853     -611.68838     -1.6363772    
     85000   305.31904     -4618.6667      1272.3304     -616.04212      21.65152     
     86000   291.19887     -4680.6871      1244.7332     -831.9283       10.258915    
     87000   296.64151     -4632.9343      1237.9781     -742.26021     -11.983989    
     88000   298.36496     -4687.5712      1280.7328     -738.73061      44.596407    
     89000   297.36514     -4726.1805      1273.4096     -793.60388      9.3242237    
     90000   298.08583     -4738.7926      1269.3998     -803.78102      7.0969061    
     91000   306.87004     -4760.9071      1259.48       -757.26325      30.420276    
     92000   296.24025     -4856.4451      1284.2621     -923.07526      12.74713     
     93000   299.61079     -4858.068       1235.6937     -943.12575      16.290216    
     94000   303.68614     -4885.2915      1245.4968     -924.10255      9.0229189    
     95000   291.74255     -4918.9084      1266.4501     -1043.571       45.402183    
     96000   297.71437     -4945.357       1239.0753     -1043.9918     -18.620127    
     97000   302.26744     -4944.3401      1250.0337     -991.30083      3.3102631    
     98000   302.17015     -4959.2604      1252.2318     -1004.8931      3.0713199    
     99000   301.16882     -4958.3878      1243.4648     -1021.7419      19.777127    
    100000   296.43397     -4940.085       1273.3897     -1015.8551     -29.440675    
    101000   298.75424     -4990.6206      1244.6408     -1074.3909      13.782436    
    102000   297.6683      -5025.0212      1283.0186     -1080.1247      39.119347    
    103000   302.76304     -5042.9449      1269.7135     -1065.7941     -17.815535    
    104000   307.21776     -5108.3184      1223.8684     -1137.1767      19.01869     
    105000   299.67571     -5085.9027      1268.5719     -1137.5017      8.3399493    
    106000   305.37536     -5111.0303      1244.1841     -1136.0484     -10.98457     
    107000   309.70702     -5134.5738      1265.0038     -1100.0366      20.289405    
    108000   295.5398      -5142.9654      1275.465      -1224.6564     -36.28531     
    109000   308.47818     -5184.7427      1217.0754     -1209.1227     -0.17660236   
    110000   299.55896     -5163.3352      1220.9048     -1263.6453      1.3932227    
    111000   307.3291      -5217.8763      1251.0093     -1218.598      -19.963042    
    112000   299.49042     -5236.91        1198.4386     -1360.2993      0.60195532   
    113000   296.90271     -5264.5221      1216.1522     -1393.3382      24.507953    
    114000   292.77429     -5265.3812      1210.7802     -1436.4873     -9.4180054    
    115000   299.01812     -5301.556       1205.4432     -1422.1641      5.2764505    
    116000   301.09278     -5308.7044      1255.7449     -1360.4584      7.0994817    
    117000   297.96272     -5294.902       1272.0817     -1358.3095      0.41469686   
    118000   301.03832     -5324.6738      1211.2396     -1421.42        14.397832    
    119000   297.05751     -5342.5435      1218.3847     -1467.7428      21.601295    
    120000   301.75195     -5369.6169      1269.3775     -1401.8436     -22.054728    
    121000   300.74517     -5406.703       1250.8096     -1466.5007     -0.20601439   
    122000   295.47893     -5408.5663      1307.2602     -1459.0063      14.519545    
    123000   296.83941     -5416.9864      1232.8749     -1529.6458      4.6242782    
    124000   299.50742     -5378.1436      1244.2778     -1455.5416      0.94132456   
    125000   298.38974     -5388.9056      1232.5129     -1488.0633     -0.48726244   
    126000   299.68333     -5433.2898      1218.4693     -1534.9232     -6.7986206    
    127000   303.69353     -5410.8813      1241.5479     -1453.5752      20.588378    
    128000   299.75805     -5405.5809      1257.1846     -1467.8309     -16.969364    
    129000   302.41966     -5423.1337      1244.174      -1474.593       2.8052053    
    130000   306.5344      -5439.6231      1205.036      -1493.4246     -25.457406    
    131000   295.15239     -5413.2361      1201.9871     -1571.8695      14.517156    
    132000   304.71851     -5404.3849      1250.4643     -1428.9966     -20.753356    
    133000   290.39874     -5456.4582      1245.0577     -1614.53        5.9408432    
    134000   302.9293      -5504.925       1226.217      -1569.7838     -7.6045648    
    135000   298.85942     -5492.1365      1233.1923     -1586.4147      26.707598    
    136000   294.34965     -5499.472       1225.4833     -1641.7875     -25.002944    
    137000   294.75318     -5509.2533      1244.0066     -1629.437       8.1183179    
    138000   297.54161     -5529.591       1280.9658     -1587.8801      24.253485    
    139000   298.05919     -5526.1578      1273.9118     -1586.8725      5.8782472    
    140000   301.88027     -5533.1438      1232.9367     -1600.6639      26.761791    
    141000   303.66214     -5531.6273      1211.6217     -1604.5281     -13.30187     
    142000   295.08126     -5560.6041      1195.4826     -1726.3779      46.505739    
    143000   305.58372     -5529.5713      1287.1296     -1509.7806     -8.3474845    
    144000   303.39686     -5532.3704      1256.2711     -1562.994      -8.0564365    
    145000   308.18678     -5561.0311      1247.1346     -1557.9578     -39.490032    
    146000   297.50218     -5573.9832      1222.3806     -1691.2102     -31.169823    
    147000   301.30368     -5572.0625      1227.1906     -1650.4848     -1.0887579    
    148000   300.75003     -5565.2529      1274.6327     -1601.1841      7.4586356    
    149000   306.20108     -5574.7125      1236.4697     -1600.061       35.597183    
    150000   294.58371     -5600.9667      1238.9397     -1727.7328      10.664788    
Loop time of 63.7925 on 64 procs for 100000 steps with 3001 atoms

Performance: 4063.174 ns/day, 0.006 hours/ns, 1567.582 timesteps/s
99.6% CPU use with 64 MPI tasks x 1 OpenMP threads

MPI task timing breakdown:
Section |  min time  |  avg time  |  max time  |%varavg| %total
---------------------------------------------------------------
Pair    | 0.16799    | 0.85568    | 5.2813     | 163.2 |  1.34
Bond    | 0.12225    | 0.21653    | 0.67488    |  34.0 |  0.34
Neigh   | 10.951     | 11.277     | 11.761     |   6.1 | 17.68
Comm    | 44.622     | 50.129     | 51.361     |  27.6 | 78.58
Output  | 0.54291    | 0.54364    | 0.54488    |   0.1 |  0.85
Modify  | 0.18514    | 0.34586    | 1.0071     |  41.2 |  0.54
Other   |            | 0.4247     |            |       |  0.67

Nlocal:        46.8906 ave         174 max          10 min
Histogram: 21 30 4 1 0 0 0 0 3 5
Nghost:         3450.2 ave        3788 max        3069 min
Histogram: 8 0 0 7 15 5 15 6 2 6
Neighs:        561.016 ave        3707 max          13 min
Histogram: 55 1 0 0 0 0 0 0 2 6
FullNghs:      1122.03 ave        7906 max          39 min
Histogram: 55 1 0 0 0 0 0 1 4 3

Total # of neighbors = 71810
Ave neighs/atom = 23.92869
Ave special neighs/atom = 3.5988004
Neighbor list builds = 10000
Dangerous builds = 9990

# only uncertain things are: create_box, create_atoms
Total wall time: 0:01:03
