LAMMPS (23 Jun 2022)
OMP_NUM_THREADS environment is not set. Defaulting to 1 thread. (src/src/comm.cpp:98)
  using 1 OpenMP thread(s) per MPI task

variable 		movie equal 25000
variable		output equal 5000
variable		solvent equal 0.2  #0.2 is a good solvent, 0.5 is a bad solvent, 1.0 is no solvent/vacuum
variable		np_rad equal 25.0  #NP radius in Angstrom (= 0.1 nm)
variable		coor_del equal 3.0  # in order for a ligand to be considered to be bound, it must be within this radius of the edge of the NP VDW
variable 		s2_cutoff equal 35
variable 		E_bind equal 2.0  #ligand-NP binding energy in kcal/mol
variable		Lbox equal 150.0   #edge length of cubic simulation box
variable 		Nlig equal 600	   #number of ligands
variable		seed equal 314159
variable		trajsteps equal 25000000	 #number of timesteps (length of simulation)
restart			2500000 save

units 			real
atom_style		molecular

region 			box block 0 ${Lbox} 0 ${Lbox} 0 ${Lbox} units box
region 			box block 0 150 0 ${Lbox} 0 ${Lbox} units box
region 			box block 0 150 0 150 0 ${Lbox} units box
region 			box block 0 150 0 150 0 150 units box
create_box		4 box bond/types 2 angle/types 1 extra/bond/per/atom 2 extra/angle/per/atom 1 extra/special/per/atom 3
Created orthogonal box = (0 0 0) to (150 150 150)
  4 by 4 by 4 MPI processor grid

molecule		lig ligand.mol
Read molecule template lig:
  1 molecules
  0 fragments
  5 atoms with max type 2
  4 bonds with max type 1
  3 angles with max type 1
  0 dihedrals with max type 0
  0 impropers with max type 0
#molecule		hex hexane.mol

mass            1 60 #C1, MARTINI bead representing a 4-carbon segment of an alkyl chain
mass            2 60 #N6d, MARTINI bead representing a NH2 amino group + a 2-carbon segment of an alkyl chain
mass            3 43 #SC2, MARTINI bead representing a 3-carbon segment of an alkyl chain. NOT USED IN THIS SIMULATION!
mass            4 500 #a spherical nanoparticle. the mass is not realistic.

# put NP in center
create_atoms	4 single $(v_Lbox/2) $(v_Lbox/2) $(v_Lbox/2) units box
create_atoms	4 single 75 $(v_Lbox/2) $(v_Lbox/2) units box
create_atoms	4 single 75 75 $(v_Lbox/2) units box
create_atoms	4 single 75 75 75 units box
Created 1 atoms
  using box units in orthogonal box = (0 0 0) to (150 150 150)
  create_atoms CPU = 0.000 seconds

# define region as everything outside a spherical center in sim. box. ASSUME SIM. BOX IS IMPLIED? doc seems to...
region			box_with_hole sphere $(v_Lbox/2) $(v_Lbox/2) $(v_Lbox/2) $(v_np_rad+5.0) side out units box
region			box_with_hole sphere 75 $(v_Lbox/2) $(v_Lbox/2) $(v_np_rad+5.0) side out units box
region			box_with_hole sphere 75 75 $(v_Lbox/2) $(v_np_rad+5.0) side out units box
region			box_with_hole sphere 75 75 75 $(v_np_rad+5.0) side out units box
region			box_with_hole sphere 75 75 75 30 side out units box

create_atoms	0 random ${Nlig} ${seed} box_with_hole mol lig 12345
create_atoms	0 random 600 ${seed} box_with_hole mol lig 12345
create_atoms	0 random 600 314159 box_with_hole mol lig 12345
Created 3000 atoms
  using lattice units in orthogonal box = (0 0 0) to (150 150 150)
  create_atoms CPU = 0.004 seconds

pair_style		lj/expand 12.0
pair_modify		shift yes

#pair_coeff		1 1 energy sigma delta cut

#ligand-ligand interactions
pair_coeff		1 1 $(v_solvent*0.810) 4.7 0 12
pair_coeff		1 1 0.16200000000000003286 4.7 0 12
pair_coeff		2 2 $(v_solvent*0.841) 4.7 0 12
pair_coeff		2 2 0.16820000000000001616 4.7 0 12
pair_coeff		1 2 $(v_solvent*0.667) 4.7 0 12
pair_coeff		1 2 0.13340000000000001856 4.7 0 12

#solvent-ligand interactions, NOT USED IN THIS SIMULATION
pair_coeff		3 3 0.562 4.1 0 12
pair_coeff		1 3 0.755 4.3 0 12
pair_coeff		2 3 0.554 4.3 0 12

#interactions involving the NP
pair_coeff  	1 4 0.100 4.0 $(v_np_rad-2.5) 12
pair_coeff  	1 4 0.100 4.0 22.5 12
pair_coeff  	3 4 0.100 4.0 $(v_np_rad-2.5) 12
pair_coeff  	3 4 0.100 4.0 22.5 12
pair_coeff		4 4 0.100 4.0 $(2*v_np_rad-4.0) 12
pair_coeff		4 4 0.100 4.0 46 12
pair_coeff   	2 4 ${E_bind} 4.0 $(v_np_rad-2.5) 12 #this interaction controls the binding strength of ligands to the NP core
pair_coeff   	2 4 2 4.0 $(v_np_rad-2.5) 12 
pair_coeff   	2 4 2 4.0 22.5 12 

bond_style  	harmonic
bond_coeff  	1 4.54 4.7 	#C1-C1
bond_coeff		2 5.98 4.05 #SC2-SC2, hexane

angle_style		cosine/squared
angle_coeff		1 4.1826 180

special_bonds 	lj 0 1 1
Finding 1-2 1-3 1-4 neighbors ...
  special bond factors lj:    0        1        1       
  special bond factors coul:  0        0        0       
     2 = max # of 1-2 neighbors
     2 = max # of 1-3 neighbors
     2 = max # of 1-4 neighbors
     7 = max # of special neighbors
  special bonds CPU = 0.002 seconds

group			ligands type 1 2
3000 atoms in group ligands


#EQULILIBRATION: getting rid of overlaps between particles using fix nve/limit ***************

fix 			1 ligands nve/limit 0.1
fix 			2 ligands langevin 300 300 1000 12345 #langevin thermostat

timestep		30

thermo 			${output}
thermo 			5000

dump      		1 all custom 5000 pos.lammpstrj type x y z
dump_modify		1 sort id

run				10000
Generated 0 of 6 mixed pair_coeff terms from geometric mixing rule
Neighbor list info ...
  update every 1 steps, delay 10 steps, check yes
  max neighbors/atom: 2000, page size: 100000
  master list distance cutoff = 60
  ghost atom cutoff = 60
  binsize = 30, bins = 5 5 5
  1 neighbor lists, perpetual/occasional/extra = 1 0 0
  (1) pair lj/expand, perpetual
      attributes: half, newton on
      pair build: half/bin/newton
      stencil: half/bin/3d
      bin: standard
Per MPI rank memory allocation (min/avg/max) = 8.076 | 8.105 | 8.367 Mbytes
   Step          Temp          E_pair         E_mol          TotEng         Press     
         0   0              9.8623636e+13  4.0068356e-25  9.8623636e+13  8.0147754e+12
      5000   142.74842     -326.66004      613.95264      1563.8104      2.1335232    
     10000   141.22807     -330.65081      611.73305      1544.0044     -0.79350536   
Loop time of 3.85499 on 64 procs for 10000 steps with 3001 atoms

Performance: 6723.746 ns/day, 0.004 hours/ns, 2594.038 timesteps/s
99.5% CPU use with 64 MPI tasks x 1 OpenMP threads

MPI task timing breakdown:
Section |  min time  |  avg time  |  max time  |%varavg| %total
---------------------------------------------------------------
Pair    | 0.016677   | 0.051557   | 0.14079    |  10.5 |  1.34
Bond    | 0.0092204  | 0.020973   | 0.040293   |   4.0 |  0.54
Neigh   | 0.6636     | 0.66912    | 0.67642    |   0.3 | 17.36
Comm    | 2.8976     | 3.0335     | 3.0969     |   2.1 | 78.69
Output  | 0.0012393  | 0.0012484  | 0.0012556  |   0.0 |  0.03
Modify  | 0.01861    | 0.040154   | 0.074126   |   5.2 |  1.04
Other   |            | 0.03843    |            |       |  1.00

Nlocal:        46.8906 ave          92 max          23 min
Histogram: 7 13 11 9 9 5 5 3 1 1
Nghost:        3404.61 ave        3488 max        3337 min
Histogram: 2 7 13 5 11 11 5 8 1 1
Neighs:        330.984 ave         976 max         124 min
Histogram: 21 11 12 7 3 7 2 0 0 1

Total # of neighbors = 21183
Ave neighs/atom = 7.0586471
Ave special neighs/atom = 3.5988004
Neighbor list builds = 909
Dangerous builds = 0

#PRODUCTION RUN ******************************************************************************

unfix 			1
fix 			1 ligands nve
undump			1
# define spherical region in center of sim. box
# region			center sphere $(v_Lbox/2) $(v_Lbox/2) $(v_Lbox/2) $(v_np_rad+5.0) units box
# delete atoms in the region
# delete_atoms	region center mol yes
# put NP in the hole
# create_atoms	4 single $(v_Lbox/2) $(v_Lbox/2) $(v_Lbox/2) units box

dump      		2 all custom ${movie} pos2.lammpstrj type x y z
dump      		2 all custom 25000 pos2.lammpstrj type x y z
dump_modify		2 sort id
dump 			2. all custom ${output} pos2_long.lammpstrj type x y z
dump 			2. all custom 5000 pos2_long.lammpstrj type x y z
dump_modify 	2. sort id

group           nps     type 4
1 atoms in group nps
group           amines  type 2
600 atoms in group amines

# count coordination number of NP
compute coords nps coord/atom cutoff $(v_np_rad + v_coor_del) 2
compute coords nps coord/atom cutoff 28 2
dump 3 nps custom ${output} coords.dmp c_coords
dump 3 nps custom 5000 coords.dmp c_coords
# equivalent calculation below
# compute coords nps coord/atom cutoff 28 group amines
# dump 4 nps custom ${output} coords2.dmp type c_coords2

# seond shell
compute coords2 nps coord/atom cutoff ${s2_cutoff} 2
compute coords2 nps coord/atom cutoff 35 2
dump 4 nps custom ${output} coords2.dmp c_coords2
dump 4 nps custom 5000 coords2.dmp c_coords2



run				${trajsteps}
run				25000000
Generated 0 of 6 mixed pair_coeff terms from geometric mixing rule
Neighbor list info ...
  update every 1 steps, delay 10 steps, check yes
  max neighbors/atom: 2000, page size: 100000
  master list distance cutoff = 60
  ghost atom cutoff = 60
  binsize = 30, bins = 5 5 5
  3 neighbor lists, perpetual/occasional/extra = 1 2 0
  (1) pair lj/expand, perpetual
      attributes: half, newton on
      pair build: half/bin/newton
      stencil: half/bin/3d
      bin: standard
  (2) compute coord/atom, occasional
      attributes: full, newton on
      pair build: full/bin
      stencil: full/bin/3d
      bin: standard
  (3) compute coord/atom, occasional
      attributes: full, newton on
      pair build: full/bin
      stencil: full/bin/3d
      bin: standard
Per MPI rank memory allocation (min/avg/max) = 10.11 | 10.24 | 12.12 Mbytes
   Step          Temp          E_pair         E_mol          TotEng         Press     
     10000   141.22807     -330.65081      611.73305      1544.0044     -0.79350536   
     15000   307.07089     -220.28866      1298.1865      3823.8578      10.187643    
     20000   298.14677     -226.84974      1258.3231      3697.63        9.5848413    
     25000   295.74864     -210.93516      1250.5133      3684.2898      14.267547    
     30000   305.56181     -208.06159      1247.0356      3771.4391      9.0526068    
     35000   295.38402     -205.03951      1265.929       3702.3404      13.192043    
     40000   300.47595     -205.00132      1248.1916      3730.1755      12.075659    
     45000   308.20838     -210.43258      1266.3656      3812.0649      8.0114197    
     50000   296.08595     -220.71447      1283.9611      3710.9745      6.6236387    
     55000   296.93995     -228.58352      1295.9034      3722.6847      3.7327227    
     60000   305.21791     -199.3106       1316.843       3846.9222      3.0894171    
     65000   301.76665     -214.34836      1283.4052      3767.584       6.2631077    
     70000   297.90188     -201.41402      1309.3099      3771.8626      6.6544942    
     75000   304.32612     -196.14248      1324.1254      3849.398       2.9835651    
     80000   296.32041     -219.84005      1324.8913      3754.8759      9.165503     
     85000   304.90235     -195.71711      1309.1669      3840.0178      5.0766451    
     90000   307.46431     -216.35256      1236.7163      3769.8418      12.943588    
     95000   300.83573     -203.6053       1252.5149      3739.1121      8.6693435    
    100000   301.48151     -215.62711      1259.6778      3740.028       5.9727296    
    105000   305.6004      -213.96605      1287.8502      3806.6944      9.9339112    
    110000   290.81119     -202.74744      1267.1077      3664.919       5.9036735    
    115000   300.15138     -213.22553      1278.9117      3749.7689      6.917516     
    120000   297.14804     -212.93338      1279.8832      3724.1754      5.4159635    
    125000   303.65311     -211.55072      1313.9649      3817.8109      3.3375356    
    130000   305.46574     -206.58038      1258.9028      3783.9284      6.4582535    
    135000   302.97706     -215.7874       1339.2217      3832.7855      5.6560573    
    140000   300.94436     -216.52906      1287.2408      3761.8856      5.9093797    
    145000   297.74814     -212.39837      1223.9278      3674.1214      1.4574393    
    150000   299.35991     -229.63774      1294.129       3741.4963      9.2989245    
    155000   301.27258     -217.16789      1252.6577      3729.5988      14.018624    
    160000   294.67832     -219.08803      1287.4952      3703.5474      13.985127    
    165000   295.37963     -216.06429      1264.2635      3689.6109      7.1961722    
    170000   300.43616     -209.96415      1269.6329      3746.2982      11.229717    
    175000   293.92692     -191.3434       1294.2838      3731.3613     -3.4382628    
    180000   301.675       -205.48796      1266.94        3759.1597      9.0422616    
    185000   301.07884     -221.54459      1295.1348      3765.9668      2.0730052    
    190000   306.99974     -223.82139      1285.4214      3806.9237      12.239359    
    195000   305.12627     -216.81147      1260.0078      3771.7667      3.6213124    
    200000   301.8147      -220.71167      1283.2139      3761.4591      7.2631783    
    205000   302.88253     -198.86381      1292.7684      3802.4104      10.503805    
    210000   296.93968     -211.10676      1313.3579      3757.6135      8.4479545    
    215000   305.61912     -199.73385      1280.5579      3813.8017      2.2782875    
    220000   295.00655     -222.74637      1282.6899      3698.0191      3.8163876    
    225000   294.78215     -213.35731      1263.3377      3686.0492      5.3488314    
    230000   303.4903      -183.92124      1272.8103      3802.8299      10.33132     
    235000   303.7331      -223.31724      1296.5251      3789.3199      8.6732898    
    240000   296.24581     -215.39785      1303.1777      3736.9373      7.3191641    
    245000   290.99659     -206.98656      1298.9935      3694.2237      3.8566428    
    250000   293.51024     -218.5562       1279.1242      3685.2628      6.9362129    
    255000   302.65003     -218.96784      1292.0692      3779.5281      2.3568409    
    260000   300.50702     -209.64399      1269.762       3747.3811      1.3214552    
    265000   303.56587     -199.46848      1290.7569      3805.905       4.8936341    
    270000   304.07112     -226.50047      1293.3709      3786.0052      10.148378    
    275000   301.88804     -203.9285       1284.2733      3779.9575      15.827771    
    280000   297.48257     -214.06129      1338.0263      3784.1821      6.7042289    
    285000   297.39635     -207.88485      1296.0927      3747.654       15.41215     
    290000   293.98654     -191.28595      1293.3523      3731.0205      6.9763389    
    295000   298.16789     -218.47386      1262.3217      3710.1934      1.7141256    
    300000   292.17887     -196.05308      1261.5763      3678.3123      4.769668     
    305000   308.59723     -208.136        1266.9671      3818.4403      9.673327     
    310000   305.75953     -202.60263      1281.3833      3813.014       6.4146484    
    315000   296.39464     -207.38716      1303.7119      3746.8131      6.1848805    
    320000   297.40046     -194.3201       1277.5553      3742.7181      12.030627    
    325000   289.02169     -210.5418       1293.7123      3667.7268      12.549233    
    330000   293.96218     -205.47603      1255.098       3678.3582      6.0669581    
    335000   302.49826     -202.45541      1327.4589      3830.073       11.875361    
    340000   295.17486     -226.68718      1301.8028      3714.6962      9.7058033    
    345000   298.42851     -214.93197      1285.2815      3739.0257      6.9474625    
    350000   293.59578     -197.39409      1309.834       3737.8997      0.66129792   
    355000   300.9989      -228.0112       1279.045       3742.6954      2.4469381    
    360000   301.00671     -201.63443      1318.2714      3808.3685      8.6497354    
    365000   294.27456     -203.80708      1301.4788      3729.2014      10.147487    
    370000   306.91102     -209.9697       1261.8252      3796.3859      10.942666    
    375000   302.0399      -216.59472      1288.7943      3773.1702      7.8656552    
    380000   306.31591     -208.70432      1235.5405      3766.0448      8.3190602    
    385000   299.04843     -209.97925      1231.4038      3695.6442      3.3217716    
    390000   301.17372     -198.17327      1296.237       3791.2887      12.72446     
    395000   308.25717     -209.38483      1265.1306      3812.314       9.5579773    
    400000   307.00168     -204.99282      1236.7036      3777.0519      7.9570964    
    405000   310.33921     -197.48286      1279.3623      3857.0662      8.9391228    
    410000   301.05416     -222.58873      1297.181       3766.748       6.9721917    
    415000   298.53211     -210.46411      1283.8737      3743.0121      5.3139697    
    420000   294.50039     -191.12086      1209.885       3652.3133      1.7838864    
    425000   299.92651     -190.76878      1259.7437      3751.0467      1.7078804    
    430000   295.36754     -195.89207      1293.613       3739.0246      11.601145    
    435000   296.33717     -192.43851      1313.2797      3770.8156      3.8423923    
    440000   292.57054     -211.09757      1280.6764      3685.8705      10.250756    
    445000   299.42614     -194.78357      1280.7272      3763.541       7.7732002    
    450000   307.06302     -192.29058      1284.5726      3838.1717      10.993477    
    455000   296.12857     -185.15448      1287.7209      3750.6754      10.423941    
    460000   302.84606     -204.4979       1280.4444      3784.1262      3.5284051    
    465000   291.42044     -204.58587      1245.7841      3647.2052      5.9740934    
    470000   300.73415     -200.37456      1261.6666      3750.5862      12.354282    
    475000   309.38454     -202.76136      1266.6334      3830.5217      9.022056     
    480000   297.87424     -207.43653      1278.304       3734.587       13.92247     
    485000   300.00698     -194.43089      1273.829       3762.1896      8.3770501    
    490000   297.77818     -210.2456       1269.5252      3722.1402      10.584254    
    495000   301.89846     -212.13653      1254.0332      3741.6026      12.262463    
    500000   297.14184     -215.49241      1289.4958      3731.1735      15.979769    
    505000   301.38524     -202.47587      1285.1644      3777.805       7.1899385    
    510000   297.06291     -209.53937      1283.209       3730.134       4.2082731    
    515000   297.25304     -209.05121      1294.9899      3744.1033      7.1587895    
    520000   298.47278     -227.71843      1280.8799      3722.2335      11.559932    
    525000   313.7289      -214.27943      1263.952       3855.1713      18.099312    
    530000   299.75304     -218.46465      1321.8185      3783.8745      4.182632     
    535000   302.74318     -201.90245      1275.3345      3780.6918      3.8609314    
    540000   306.65457     -198.50085      1273.4163      3817.1525      2.3601877    
    545000   303.20536     -212.27791      1235.2696      3734.3845      15.214458    
    550000   306.96543     -198.96017      1300.7802      3846.837       9.4416733    
    555000   292.89547     -206.03393      1236.4992      3649.6626      10.824819    
    560000   305.36406     -200.39479      1312.2826      3842.5846      14.796619    
    565000   297.65378     -221.99869      1261.5393      3701.2887      7.5473341    
    570000   307.12685     -209.76406      1250.337       3787.0333      14.355248    
    575000   299.08616     -192.05719      1269.5471      3752.047       12.077893    
    580000   309.64022     -202.63911      1294.1275      3860.4243      4.7794887    
    585000   303.97939     -210.67812      1235.5248      3743.1611      9.2447509    
    590000   292.0396      -212.66242      1302.278       3701.1593      2.7258462    
    595000   307.27198     -211.37916      1306.6343      3843.0133      6.0074796    
    600000   297.93507     -220.43832      1307.8914      3751.7166      11.657298    
    605000   295.16055     -216.31212      1284.7084      3707.8489      7.8667841    
    610000   299.86407     -218.24116      1286.298       3749.5704      2.7088352    
    615000   292.93603     -223.41879      1304.5933      3700.7345      3.1263694    
    620000   294.23296     -212.6582       1299.92        3718.4195      2.5142918    
    625000   309.66876     -219.62026      1274.9692      3824.5402      2.6097227    
    630000   300.43537     -190.11057      1258.6548      3755.1666      11.095341    
    635000   303.05856     -207.28415      1265.7263      3768.5222      5.9288251    
    640000   291.23775     -216.75417      1296.4231      3684.0422      5.545248     
    645000   313.26187     -204.64473      1317.2548      3913.9325      6.4889457    
    650000   301.92679     -202.04884      1292.6955      3790.6059      7.8986724    
    655000   291.64419     -202.80086      1349.7842      3754.9912      11.376633    
    660000   305.57545     -214.88165      1271.4582      3789.1636      4.2263272    
    665000   301.54613     -208.3656       1297.9111      3786.1007      7.2545947    
    670000   306.83521     -208.86952      1278.1598      3813.1427      6.6673151    
    675000   306.40677     -203.98647      1246.058       3782.0926      15.51886     
    680000   302.36119     -213.49678      1251.3343      3741.6814      22.571847    
    685000   293.77681     -217.19768      1300.3772      3710.2581      7.4582007    
    690000   309.82579     -217.48013      1228.6358      3781.7512      9.115771     
    695000   300.44237     -204.47397      1293.3388      3775.5497      11.10731     
    700000   299.65613     -214.84643      1265.4149      3730.2224      2.7435388    
    705000   304.90873     -206.88361      1298.4169      3818.1583      12.126984    
    710000   294.52342     -208.07035      1308.0478      3733.7326      8.3656906    
    715000   312.35353     -190.95401      1245.1777      3847.4233      14.147219    
    720000   298.97412     -216.17788      1290.5858      3747.9631      9.9426295    
    725000   297.13977     -220.90252      1313.2368      3749.4858      6.5363618    
    730000   306.09966     -221.47975      1306.9144      3822.7094      5.2454634    
    735000   306.82057     -227.52652      1233.7963      3749.9913      13.448443    
    740000   293.57254     -194.6383       1258.7865      3689.4001      13.180528    
    745000   299.01807     -219.62332      1271.1955      3725.5205      2.2932818    
    750000   295.22705     -203.28092      1268.1835      3704.9499      7.2267416    
    755000   307.29668     -212.12278      1286.9073      3822.7636     -1.0262767    
    760000   300.21246     -213.89189      1264.0597      3734.7968      4.8275216    
    765000   302.64794     -197.70454      1287.8156      3796.5192      11.493607    
    770000   292.61252     -209.9505       1339.4705      3746.1871      12.133049    
    775000   303.08136     -214.65224      1270.7578      3766.3894      11.981313    
    780000   301.31912     -220.43999      1306.5022      3780.5874      11.19854     
    785000   299.54973     -222.44917      1333.5225      3789.7759      10.537848    
    790000   301.26336     -219.51598      1239.0357      3713.5463      7.4042016    
    795000   298.00038     -211.36205      1254.5087      3707.9942      6.06625      
    800000   302.87717     -216.87189      1264.2265      3755.8125      3.9379119    
    805000   297.01521     -205.58094      1318.7959      3769.2527      9.7259077    
    810000   301.22712     -208.90168      1295.4071      3780.2079      4.6268155    
    815000   300.40472     -223.37247      1272.1428      3735.1186      10.348537    
    820000   306.22233     -210.06039      1298.4917      3826.8032      6.7222932    
    825000   294.94858     -202.51168      1263.009       3698.0544      8.9229911    
    830000   302.14268     -204.45331      1283.8583      3781.2948      10.170825    
    835000   291.86214     -203.04105      1297.6451      3704.5609      8.9139838    
    840000   300.04303     -206.9014       1273.7603      3749.9728     -3.2834061    
    845000   299.23232     -224.50403      1307.7603      3759.1204      3.2827325    
    850000   303.05317     -204.00007      1303.3094      3809.3412      14.213091    
    855000   300.12306     -211.69288      1328.1244      3800.261       4.5936429    
    860000   296.717       -193.57614      1237.69        3697.4849      12.449449    
    865000   292.60617     -196.91861      1269.8899      3689.5815      4.5094542    
    870000   293.98895     -199.39788      1297.3016      3726.8794      10.865568    
    875000   296.33932     -205.95482      1265.106       3709.1449      11.500204    
    880000   298.6147      -207.96388      1309.6863      3772.0635      11.46752     
    885000   303.34776     -215.51977      1282.3686      3779.515       6.2565179    
    890000   300.06662     -209.43966      1281.3931      3755.2782      15.698611    
    895000   304.73747     -205.69533      1314.9584      3834.3566      1.8544881    
    900000   291.57763     -205.84467      1262.13        3663.6979      5.7788858    
    905000   305.37814     -203.14458      1252.9509      3780.629       7.4510138    
    910000   299.84604     -211.20226      1301.5017      3771.6517      13.641606    
    915000   305.56513     -205.72895      1272.2229      3798.9888     -1.2222998    
    920000   294.9198      -187.69479      1312.0527      3761.6576      9.6240882    
    925000   305.66316     -200.8279       1301.8584      3834.4019      9.9424443    
    930000   306.64283     -230.11525      1289.6132      3801.63        15.772529    
    935000   307.10519     -208.89269      1279.237       3816.6111      12.849469    
    940000   298.40669     -210.0861       1295.7356      3754.1305      7.2957744    
    945000   300.81007     -214.74477      1277.0578      3752.286       4.3317436    
    950000   304.65431     -191.67431      1280.6078      3813.2833      12.108495    
    955000   295.09335     -206.8784       1238.7265      3670.6998      7.715563     
    960000   296.23171     -217.10193      1260.6192      3692.5487      6.349293     
    965000   300.46457     -210.56063      1304.7561      3781.0789      10.175011    
    970000   304.00212     -193.77402      1327.1808      3851.9244      12.668021    
    975000   293.92346     -215.643        1294.5079      3707.2549      7.3077527    
    980000   299.62874     -215.68671      1258.2498      3721.9722      11.244084    
    985000   290.73225     -212.99074      1253.1394      3640.0015      14.833191    
    990000   293.84079     -208.60746      1324.7655      3743.8088      13.131255    
    995000   304.40863     -217.65463      1307.9527      3812.451       5.8915549    
   1000000   304.24295     -221.43316      1288.5987      3787.8368      3.0483502    
   1005000   300.8441      -215.70793      1261.3156      3735.885       6.2569189    
   1010000   291.03851     -214.23638      1297.6991      3686.0543      8.7648723    
   1015000   294.83167     -217.16583      1260.0236      3679.3694      10.269712    
   1020000   303.89066     -216.39333      1347.9978      3849.1255      8.9645067    
   1025000   304.59624     -217.4985       1297.6917      3804.0238      8.251122     
   1030000   302.03172     -213.36042      1228.857       3716.3941      1.7609635    
   1035000   291.0222      -208.0948       1282.0432      3676.3941      8.3437902    
   1040000   298.11392     -198.46988      1288.2123      3755.6053      7.8516528    
   1045000   296.19194     -214.76643      1294.292       3728.2014      11.035782    
   1050000   297.82532     -211.2774       1270.8798      3722.8846      5.6412903    
   1055000   301.0986      -202.33182      1311.8755      3802.0969      7.5335358    
   1060000   301.4517      -224.29178      1273.1532      3744.5722      2.4081799    
   1065000   295.77141     -218.64109      1291.7507      3718.0248      4.0473424    
   1070000   289.60626     -212.68599      1295.5119      3672.6096      4.4042902    
   1075000   302.45202     -212.13651      1269.5535      3762.0731      5.8044369    
   1080000   302.76248     -208.87827      1293.0013      3791.5553      5.7299332    
   1085000   296.12357     -214.37902      1256.8937      3690.579       6.8182092    
   1090000   302.59325     -207.27584      1273.1774      3771.8206     -0.30754703   
   1095000   300.71407     -202.7851       1267.6125      3753.9419      3.0976541    
   1100000   292.50051     -204.48529      1317.1649      3728.345       4.6531307    
   1105000   293.95571     -216.43582      1308.3391      3720.5817      6.2758971    
   1110000   301.14187     -206.07593      1296.7162      3783.5804      3.7440266    
   1115000   306.92255     -207.78813      1267.3683      3804.2136      6.2575598    
   1120000   297.60489     -226.65534      1275.3931      3710.0487      15.058545    
   1125000   303.81394     -203.31482      1256.1048      3769.6249      14.207137    
   1130000   300.79709     -207.66099      1309.6559      3791.8519      4.0986348    
   1135000   300.63938     -207.90172      1296.7223      3777.2673      4.605257     
   1140000   301.03638     -221.06536      1311.6489      3782.5804      5.9925997    
   1145000   301.64448     -192.47813      1302.7424      3807.699       7.4376588    
   1150000   308.91903     -220.1047       1266.8052      3809.1873      5.6931412    
   1155000   301.85042     -229.30978      1302.6943      3772.6608      7.4685787    
   1160000   307.48971     -204.27657      1250.3543      3795.783       3.2069842    
   1165000   302.04939     -206.93358      1305.2925      3799.4145      7.1372668    
   1170000   294.31526     -207.97837      1256.4067      3680.322       6.2823058    
   1175000   302.40105     -219.87876      1276.21        3760.5315      8.370402     
   1180000   297.2493      -216.5478       1316.8193      3758.4026      8.6414532    
   1185000   297.60804     -213.51528      1246.9392      3694.763       3.2229583    
   1190000   296.31012     -216.32574      1247.8806      3681.2874      9.4961618    
   1195000   300.5768      -213.52255      1302.1596      3776.5241      9.3572558    
   1200000   297.66818     -179.18811      1261.642       3744.3308      6.9726375    
   1205000   295.90855     -198.71297      1236.9589      3684.3875      7.8377291    
   1210000   296.56831     -203.93067      1325.9903      3774.101       7.4622852    
   1215000   298.53292     -214.37899      1290.9633      3746.1941      9.2410599    
   1220000   305.69366     -212.78657      1284.1756      3805.0332      8.1087632    
   1225000   306.1471      -208.84858      1289.4533      3818.3038      8.0987853    
   1230000   300.29391     -203.96708      1276.8018      3758.1921      9.0244487    
   1235000   298.45739     -225.12391      1319.7795      3763.59        4.4187803    
   1240000   301.77425     -211.11335      1280.2155      3767.6973      17.899636    
   1245000   301.60968     -211.28613      1274.6937      3760.531       9.4354875    
   1250000   301.54418     -203.69751      1313.4828      3806.323       8.4309006    
   1255000   297.10796     -196.74629      1290.6964      3750.8173      6.3780507    
   1260000   304.05784     -189.29063      1319.3075      3849.0329      0.4491062    
   1265000   313.64822     -215.65394      1309.1467      3898.2701      10.352869    
   1270000   302.41371     -217.10724      1295.9928      3783.1991      7.5399289    
   1275000   304.74556     -224.03924      1281.4914      3782.618       2.8732211    
   1280000   297.67683     -225.30661      1278.943       3715.5906      12.541927    
   1285000   299.91988     -213.50433      1274.4659      3742.9742      7.827648     
   1290000   297.67924     -197.99741      1291.6608      3755.6391     -0.43211751   
   1295000   304.19985     -213.75601      1266.2912      3772.8211      12.30502     
   1300000   295.24801     -212.10153      1265.7704      3693.9035      3.314807     
   1305000   296.3374      -214.85831      1289.1605      3724.2787      12.602466    
   1310000   291.37943     -232.53454      1238.6234      3611.7291      7.2742993    
   1315000   300.74504     -208.23137      1292.0507      3773.2108      7.3860829    
   1320000   304.98966     -199.16525      1326.3822      3854.5657      12.924142    
   1325000   303.91184     -205.50956      1312.1628      3824.3636      10.210349    
   1330000   304.06748     -201.76092      1341.744       3859.0853     -0.0925576    
   1335000   299.15785     -212.03307      1260.2527      3723.4178      4.6722759    
   1340000   303.03491     -205.13208      1323.0981      3827.8345      11.862283    
   1345000   294.81349     -217.10857      1263.3789      3682.6193      10.913712    
   1350000   300.79068     -209.3952       1228.7079      3709.1123      7.2153196    
   1355000   307.01564     -202.20076      1276.292       3819.5571      7.1077847    
   1360000   299.41571     -204.7586       1312.5921      3785.3376      3.3345315    
   1365000   301.78125     -213.28023      1304.4828      3789.8603      5.0524563    
   1370000   295.96532     -229.26911      1267.5872      3684.9673      10.976229    
   1375000   300.04564     -216.33954      1257.2257      3724.0234      10.326757    
   1380000   304.13153     -213.94225      1250.0062      3755.7389      16.479973    
   1385000   295.24253     -208.00318      1290.6287      3722.8112      12.226574    
   1390000   304.10995     -217.2255       1252.2537      3754.5101      11.62738     
   1395000   303.92894     -207.64723      1295.186       3805.4021      7.1045145    
   1400000   300.8925      -197.42475      1259.2904      3752.5759      5.0198448    
   1405000   298.31816     -205.51243      1275.0078      3737.1847      3.2869841    
   1410000   302.89606     -198.90694      1261.6384      3771.3582      8.5811755    
   1415000   299.15078     -210.92932      1260.0725      3724.2781      16.291794    
   1420000   301.56995     -192.73227      1290.6658      3794.7017      10.863308    
   1425000   295.29659     -213.62359      1286.6335      3713.679       9.5039035    
   1430000   302.75343     -208.47189      1293.3297      3792.2092      2.5374409    
   1435000   295.923       -205.14388      1288.3655      3729.4923      4.907226     
   1440000   307.91179     -202.76307      1346.8086      3897.5253      9.6442717    
   1445000   304.70766     -206.22005      1221.9641      3740.571       7.215628     
   1450000   299.73686     -195.47181      1306.2313      3791.1354      3.6846376    
   1455000   299.7841      -227.09044      1287.9748      3741.6827      5.7102694    
   1460000   288.804       -197.44336      1279.8166      3664.9828      15.156847    
   1465000   303.53041     -214.89983      1297.2567      3796.6563      12.97207     
   1470000   298.86455     -226.61096      1290.1542      3736.1186      3.8009761    
   1475000   297.33361     -207.309        1295.8886      3747.4647      6.4567353    
   1480000   295.53856     -198.55695      1295.5057      3739.7817      6.8746154    
   1485000   302.67259     -203.7642       1279.4184      3782.2828      6.612873     
   1490000   298.67804     -202.52288      1245.396       3713.7806      6.4553353    
   1495000   299.37389     -219.0838       1331.0531      3789.0994      2.3792563    
   1500000   296.16248     -208.53292      1287.1207      3727           16.608485    
   1505000   297.97176     -215.18225      1288.8053      3738.2147      4.2753223    
   1510000   297.8331      -205.70476      1274.6391      3732.286       14.67078     
   1515000   298.42309     -214.70232      1302.4333      3756.3586      2.3047481    
   1520000   301.37442     -221.39819      1227.7273      3701.3488      1.5206192    
   1525000   302.53755     -210.2273       1232.9417      3728.1353      6.903186     
   1530000   297.79013     -204.03186      1270.8014      3729.737       8.3321704    
   1535000   295.95362     -223.03445      1305.044       3728.5541      13.874961    
   1540000   302.73089     -206.92855      1305.6991      3805.9204      13.91431     
   1545000   294.05826     -193.42311      1298.5876      3734.7599      3.9399537    
   1550000   305.42059     -219.49837      1275.4644      3787.1683      2.5386795    
   1555000   296.71616     -212.55084      1274.86        3715.6727      8.3655958    
   1560000   296.3843      -183.39805      1276.9566      3743.9544      11.798982    
   1565000   302.04229     -201.78054      1305.675       3804.8866      10.404372    
   1570000   300.70026     -207.50794      1274.1463      3755.6294      6.4735207    
   1575000   300.21113     -218.45953      1289.0046      3755.1622      1.8695239    
   1580000   300.68402     -213.60933      1300.1366      3775.3732      8.9078436    
   1585000   300.32285     -197.09973      1242.6976      3731.2139      12.180568    
   1590000   298.38792     -204.68859      1283.4508      3747.0753      11.423942    
   1595000   298.5049      -205.68846      1251.6923      3715.363       14.088785    
   1600000   296.90226     -211.34778      1256.8928      3700.5728      8.7990053    
   1605000   303.72597     -208.73134      1282.0875      3789.4044      9.170551     
   1610000   295.96008     -197.62895      1267.937       3716.9104      7.0020431    
   1615000   305.10495     -193.58946      1299.717       3834.5073      6.2096197    
   1620000   296.58169     -218.00543      1247.2809      3681.4365      10.816845    
   1625000   304.67162     -218.23331      1314.0319      3820.3033      8.364893     
   1630000   294.77723     -200.40116      1265.8996      3701.5233      7.8235571    
   1635000   306.20075     -213.7182       1267.0439      3791.5045      18.760172    
   1640000   306.18677     -208.81523      1251.5697      3780.8083      8.4449929    
   1645000   297.51908     -206.94255      1289.4259      3743.0269      8.0054374    
   1650000   300.55381     -197.38385      1297.3223      3787.6199      6.5543074    
   1655000   300.51025     -199.64696      1308.7893      3796.4343      11.499633    
   1660000   299.23452     -213.76133      1266.1819      3728.3043      3.8620684    
   1665000   302.25287     -210.00761      1336.9388      3829.8064      9.0252985    
   1670000   303.91794     -201.74786      1300.0924      3816.1095      8.5831145    
   1675000   296.19808     -226.22823      1270.7275      3693.2299      7.0414058    
   1680000   300.21085     -221.82351      1224.5198      3687.3109      9.3366853    
   1685000   305.93225     -212.13777      1274.2691      3797.9091      7.3623147    
   1690000   292.94455     -213.21453      1251.0447      3657.4664      6.2059162    
   1695000   305.2344      -206.82327      1308.2686      3830.9827      7.7835911    
   1700000   292.54116     -210.19553      1291.4799      3697.3132      8.8444662    
   1705000   304.03178     -200.78047      1287.6845      3805.687       9.6774003    
   1710000   300.28838     -196.57833      1275.9214      3764.651       16.206472    
   1715000   295.78103     -193.19152      1278.0044      3729.8141      9.8756923    
   1720000   297.46271     -215.94998      1304.0816      3748.1711      9.09345      
   1725000   303.00357     -217.1375       1308.4365      3800.8873      9.6089422    
   1730000   304.83788     -224.83217      1301.2419      3802.4012      14.978189    
   1735000   296.86325     -212.25547      1230.5008      3672.9242      5.7977052    
   1740000   295.54254     -210.21907      1283.3107      3715.9601      14.286255    
   1745000   303.89911     -203.88112      1293.2015      3806.9169      8.5450797    
   1750000   305.085       -207.02912      1269.3002      3790.4724      11.157081    
   1755000   301.84994     -203.44345      1267.1575      3762.9861      14.255954    
   1760000   304.7285      -203.65516      1261.2801      3782.6382      7.7318025    
   1765000   298.50473     -210.94318      1292.9127      3751.3272      7.480116     
   1770000   302.44468     -203.36611      1264.598       3765.8223      10.156543    
   1775000   299.38275     -208.39407      1260.4552      3729.2705      13.076163    
   1780000   300.9629      -206.6347       1248.9486      3733.6537      9.7114992    
   1785000   293.62118     -203.5873       1278.8682      3700.9678      7.1105993    
   1790000   300.97182     -204.18133      1267.0489      3754.287       6.9458812    
   1795000   305.66581     -212.47542      1294.766       3815.6857      5.0616823    
   1800000   300.71231     -199.57473      1227.8259      3717.35        7.8196695    
   1805000   296.00022     -200.76736      1273.0804      3719.2743      14.211233    
   1810000   296.36618     -200.26337      1309.8964      3759.8669      1.2345988    
   1815000   306.32167     -214.68759      1321.542       3846.1146      8.7337614    
   1820000   296.27668     -208.08965      1266.8039      3708.1477      13.247876    
   1825000   297.51299     -197.67477      1267.2343      3730.0487      13.427714    
   1830000   303.21689     -207.59114      1294.5329      3798.4376      7.3582661    
   1835000   301.75461     -240.37187      1303.031       3761.0786      12.430126    
   1840000   304.2488      -209.41786      1296.9183      3808.2241      3.6833319    
   1845000   298.94533     -218.16018      1251.5203      3706.6578      11.53699     
   1850000   294.46971     -187.84651      1231.38        3676.8082      7.0435442    
   1855000   305.24761     -212.94184      1240.9598      3757.6734      8.0271586    
   1860000   296.02199     -207.15753      1220.1378      3660.1363      11.1987      
   1865000   303.05141     -193.31206      1287.3604      3804.0644      6.652761     
   1870000   303.47718     -206.27175      1299.7705      3807.3222      6.4530388    
   1875000   293.32118     -220.41391      1289.8383      3692.4285      4.846327     
   1880000   297.81557     -199.34926      1268.2667      3732.1124      9.630712     
   1885000   301.81573     -206.91973      1298.1433      3790.1896      9.1674554    
   1890000   296.15787     -221.50099      1264.6722      3691.5423      7.5159407    
   1895000   303.02254     -220.31012      1298.4177      3787.8654      11.897152    
   1900000   299.34228     -204.6386       1273.3773      3745.5861      4.650158     
   1905000   302.72093     -220.18035      1330.8601      3817.7405      6.5978007    
   1910000   306.53691     -198.85981      1277.7538      3820.0789      14.19702     
   1915000   306.2496      -211.81374      1257.0947      3783.8967      11.280049    
   1920000   300.29696     -212.03662      1255.5549      3728.9029      11.038472    
   1925000   303.06302     -223.19406      1253.2063      3740.1321      9.1454745    
   1930000   297.30223     -226.65577      1307.0694      3739.0181      5.8769027    
   1935000   291.54411     -200.33711      1321.8486      3728.6243      5.9560755    
   1940000   300.04949     -222.34075      1248.6681      3709.499       6.0117435    
   1945000   294.21924     -214.05629      1353.349       3770.3277      4.0054298    
   1950000   298.16025     -206.72212      1286.813       3746.3681      5.2547279    
   1955000   303.43529     -193.50444      1287.5037      3807.4482      11.480803    
   1960000   293.63031     -202.65299      1310.5788      3733.6944      6.0169018    
   1965000   302.27197     -194.14339      1269.4548      3778.3575      7.7564615    
   1970000   298.34901     -203.25435      1241.1923      3705.9031      3.876381     
   1975000   302.01882     -192.29567      1268.9292      3777.4158      10.566395    
   1980000   305.45036     -217.38887      1246.7381      3760.8177     -3.8325989    
   1985000   299.20697     -204.77835      1261.4522      3732.3113      5.1031962    
   1990000   303.79344     -203.25917      1277.5159      3790.9084      8.7158963    
   1995000   304.78057     -203.61229      1257.9805      3779.8472      7.23505      
   2000000   303.1373      -194.05817      1232.4317      3749.1577      12.058573    
   2005000   296.50105     -213.8199       1279.4847      3717.1047      10.310541    
   2010000   305.58445     -217.32884      1322.2678      3837.6065      9.610157     
   2015000   292.87053     -215.68692      1300.3221      3703.6095      8.4971757    
   2020000   296.83736     -208.52772      1270.6207      3716.5403      4.6348358    
   2025000   304.15832     -206.23299      1282.4754      3796.157       13.11552     
   2030000   301.26304     -205.81617      1271.179       3759.3866      11.456586    
   2035000   299.60566     -210.50471      1311.9485      3780.6465      6.2932104    
   2040000   301.19272     -212.51315      1255.2738      3736.1555      13.506027    
   2045000   305.04365     -196.04234      1246.6183      3778.4075     -2.8448464    
   2050000   296.3807      -193.5219       1297.47        3754.3118      9.1211033    
   2055000   298.10557     -194.84717      1218.5377      3689.4788      14.099645    
   2060000   306.27905     -207.59407      1281.8589      3813.1438      5.950118     
   2065000   311.65351     -223.57848      1288.478       3851.8393      0.59741484   
   2070000   298.86647     -218.71936      1257.5314      3711.4046      1.4819203    
   2075000   309.74992     -216.36164      1253.1631      3806.7184      17.325807    
   2080000   297.60454     -211.80517      1261.0112      3710.5138      6.4261898    
   2085000   297.54292     -212.27294      1314.1323      3762.6161      11.743354    
   2090000   298.57383     -215.32556      1279.7969      3734.447       4.9742983    
   2095000   295.97897     -208.42049      1271.1001      3709.4509      2.7453366    
   2100000   300.85878     -211.14266      1257.238       3736.5039      11.769077    
   2105000   298.35058     -203.86905      1276.9628      3741.0729      3.207149     
   2110000   299.79328     -213.77731      1270.5863      3737.6894      8.3345334    
   2115000   302.77691     -216.60073      1270.5797      3761.5403      6.3466617    
   2120000   298.16712     -217.60545      1275.6169      3724.3501      4.2778998    
   2125000   302.1863      -211.13545      1240.5717      3731.7162      5.7547201    
   2130000   304.70215     -227.25213      1302.2494      3799.775       7.794567     
   2135000   305.18586     -203.92547      1242.5742      3767.752       9.6689768    
   2140000   294.94752     -214.57821      1341.7864      3764.7558     -0.25004894   
   2145000   300.02548     -208.4562       1267.2186      3741.7193      10.167698    
   2150000   298.36828     -230.13905      1256.0363      3694.0348      12.199312    
   2155000   299.30109     -231.20497      1259.7626      3705.0367      10.635988    
   2160000   299.56832     -206.92525      1326.7878      3798.7313     -2.3040269    
   2165000   298.70469     -222.75394      1289.6485      3738.0404      8.2791727    
   2170000   298.14801     -197.04921      1279.1664      3748.2849      6.6045311    
   2175000   300.67333     -196.33719      1270.0463      3762.4594      12.426854    
   2180000   306.59663     -221.05786      1282.2585      3802.9196      7.8742705    
   2185000   302.62872     -201.34032      1273.6111      3778.5069      0.65489672   
   2190000   292.28408     -204.85913      1312.2805      3721.1513      7.8324514    
   2195000   301.62091     -215.06801      1286.8686      3769.0245      2.6765372    
   2200000   308.39379     -214.77756      1280.8071      3823.8194      7.9842651    
   2205000   304.71539     -210.1198       1274.8         3789.5763      5.3963154    
   2210000   298.3578      -220.11421      1277.6524      3725.5821      11.78579     
   2215000   300.02808     -212.60317      1277.3604      3747.7373      10.646502    
   2220000   303.5935      -221.39849      1306.434       3799.8991      6.4011071    
   2225000   299.18166     -221.62493      1277.817       3731.6032      2.6610148    
   2230000   300.71326     -215.43749      1312.935       3786.6048      6.2321917    
   2235000   300.412       -196.84215      1291.3         3780.8712      9.7162807    
   2240000   296.99495     -226.7755       1244.6833      3673.7645      9.6360841    
   2245000   308.86771     -220.26228      1300.7026      3842.4682      5.4770802    
   2250000   295.03107     -206.04303      1258.2233      3690.475       4.2226768    
   2255000   293.84552     -201.28866      1211.8544      3638.2588      10.75409     
   2260000   296.80486     -203.9355       1328.0132      3778.2345      14.466035    
   2265000   302.23838     -219.28877      1295.8305      3779.2873      2.6464042    
   2270000   303.30555     -194.87703      1251.3234      3768.7351      10.731453    
   2275000   301.93434     -201.95208      1289.0606      3787.1353      6.7666651    
   2280000   292.39839     -202.15245      1335.6584      3748.2581      11.437589    
   2285000   300.75695     -203.08958      1261.9113      3748.3197      8.3973154    
   2290000   299.91265     -220.89466      1223.5882      3684.6415      6.7516236    
   2295000   297.41492     -218.02287      1293.7505      3735.3398      14.574579    
   2300000   306.4603      -186.36987      1295.8086      3849.9385      7.2370103    
   2305000   301.71005     -213.70873      1282.1665      3766.4788      12.810885    
   2310000   293.50576     -202.56682      1244.1302      3666.2182      9.3680839    
   2315000   302.91753     -214.02304      1285.8543      3780.6501      7.3271118    
   2320000   299.50876     -205.82518      1303.3986      3775.9096      14.984352    
   2325000   297.86054     -210.60379      1271.4396      3724.4329      5.8604842    
   2330000   304.02371     -199.46937      1281.972       3801.2134      13.923798    
   2335000   292.99825     -206.62534      1248.4433      3661.9344      10.671119    
   2340000   296.84398     -193.29469      1272.256       3733.4678      7.3199143    
   2345000   302.61844     -203.69758      1312.349       3814.7957      12.6585      
   2350000   306.50182     -192.98301      1237.5372      3785.4253      13.793601    
   2355000   300.32171     -198.96906      1253.7018      3740.3387      7.7209086    
   2360000   296.95554     -224.72888      1244.1568      3674.9322      13.916561    
   2365000   301.50723     -206.55766      1241.267       3730.9166      15.099585    
   2370000   306.44729     -216.10804      1310.3611      3834.6365      4.8102947    
   2375000   300.30053     -214.35786      1304.7113      3775.7699      4.4399928    
   2380000   295.10024     -218.08519      1284.0755      3704.9036      5.2425897    
   2385000   293.08328     -207.75862      1337.3578      3750.476       0.30594205   
   2390000   300.04415     -206.21264      1292.2707      3769.1819      8.4572707    
   2395000   302.75112     -209.09738      1266.7311      3764.9645      10.318239    
   2400000   297.11292     -222.45929      1315.5185      3749.9707      2.7367768    
   2405000   308.03177     -182.58504      1256.7677      3828.7352      4.2349293    
   2410000   289.76214     -217.82564      1282.3294      3655.6814      3.4913488    
   2415000   300.33129     -193.80425      1253.1804      3745.0678      10.700891    
   2420000   300.63112     -215.77099      1304.8054      3777.4072      8.2322176    
   2425000   298.12211     -195.5277       1296.2487      3766.6572      9.3768372    
   2430000   306.31845     -209.97573      1303.938       3833.1936      8.3710282    
   2435000   304.39278     -211.59         1303.3595      3813.7806      2.3525705    
   2440000   290.91232     -221.77628      1236.663       3616.3498      4.9040558    
   2445000   293.38072     -203.69225      1301.6822      3721.5266      1.5012434    
   2450000   301.0367      -219.34118      1278.4288      3751.0874      3.2631937    
   2455000   290.35497     -198.22509      1278.825       3677.079       3.4045109    
   2460000   301.20852     -214.3707       1282.3558      3761.5212      12.872032    
   2465000   301.93647     -210.78076      1276.773       3766.038       7.5298507    
   2470000   304.27281     -206.07924      1283.5941      3798.4532      10.493508    
   2475000   304.70534     -205.50003      1274.8062      3794.1123      13.465628    
   2480000   303.85608     -217.69857      1285.384       3784.8972      6.0377953    
   2485000   304.78056     -229.29824      1315.8031      3811.9838      11.074511    
   2490000   303.01869     -213.27089      1295.6701      3792.1226      3.9746936    
   2495000   303.67269     -221.35112      1262.8035      3757.0242      13.511745    
   2500000   304.73884     -212.73949      1261.5283      3773.8947      10.877798    
   2505000   304.65703     -212.0075       1260.1966      3772.5633      7.0779108    
   2510000   297.14795     -201.54041      1261.0094      3716.6938      2.5874801    
   2515000   301.09337     -193.46542      1281.7655      3780.8065      4.4404144    
   2520000   307.11989     -204.41307      1273.9674      3815.9525      11.223581    
   2525000   308.50648     -196.15077      1277.022       3839.6689      1.9159184    
   2530000   301.44576     -212.98948      1254.7617      3737.4299      8.6590587    
   2535000   295.9118      -198.02585      1293.7119      3741.8566      6.484606     
   2540000   302.49148     -214.62783      1279.9073      3770.2884      5.9260669    
   2545000   304.60271     -200.05897      1300.6058      3824.4353      3.473985     
   2550000   299.09652     -201.50046      1268.1118      3741.2611      11.486984    
   2555000   302.83365     -210.11383      1237.6807      3735.6356      10.610653    
   2560000   305.99423     -200.52149      1271.6758      3807.4863      10.207255    
   2565000   298.89389     -214.2787       1294.1476      3752.7067     -4.270182     
   2570000   292.63446     -202.57762      1310.828       3725.1136      0.73176147   
   2575000   301.77897     -194.44179      1269.7677      3773.9633      17.367443    
   2580000   297.97172     -212.91906      1293.453       3745.1252      6.0333842    
   2585000   297.06216     -211.58459      1286.0101      3730.8831      8.6608743    
   2590000   297.17072     -218.45312      1274.7808      3713.756       2.5725003    
   2595000   305.50255     -200.28049      1293.8783      3825.533       8.9002059    
   2600000   300.01369     -211.70989      1324.0063      3795.1479      12.775021    
   2605000   300.27288     -200.97983      1305.8935      3790.0829      3.8587024    
   2610000   290.16499     -204.73537      1316.8791      3706.9239     -3.2880331    
   2615000   295.5275      -209.12346      1298.7657      3732.3762      7.0697453    
   2620000   298.40293     -212.42689      1281.5257      3737.5462      1.3244084    
   2625000   304.30027     -212.73438      1279.3265      3787.7761      8.1542229    
   2630000   297.99097     -220.00897      1268.7833      3713.5377      8.4440489    
   2635000   298.24458     -219.72958      1256.4381      3703.7398      12.684719    
   2640000   297.36895     -210.15803      1291.236       3740.279       6.8595217    
   2645000   296.61897     -213.39401      1303.1497      3742.2501      11.910862    
   2650000   298.74783     -215.80338      1294.6298      3750.358       1.2824731    
   2655000   303.77241     -200.89376      1304.4395      3820.0093      10.275001    
   2660000   305.79191     -210.77612      1247.7331      3771.4798      9.0673093    
   2665000   305.28773     -200.86841      1232.4304      3761.5762      3.5457201    
   2670000   294.05189     -218.58827      1295.7513      3706.7015      20.207923    
   2675000   300.7906      -210.92308      1313.8141      3792.69        7.9016555    
   2680000   299.99446     -204.13042      1315.7149      3794.264       3.4238097    
   2685000   300.21232     -210.34661      1233.9733      3708.2544      8.7818103    
   2690000   299.83983     -200.25987      1272.732       3753.7688      7.6157498    
   2695000   297.87545     -214.47734      1318.9884      3768.2414      5.3611278    
   2700000   299.42357     -200.67541      1281.4944      3758.3934      6.4007097    
   2705000   297.89512     -198.23841      1291.0718      3756.7397      7.6502891    
   2710000   305.83806     -212.66474      1257.9552      3780.226       2.6458755    
   2715000   295.20641     -198.00223      1327.6766      3769.5371      5.8520073    
   2720000   300.20224     -200.88788      1258.8609      3742.5106      10.541092    
   2725000   296.39082     -229.19888      1295.7058      3716.9611      3.9986267    
   2730000   296.5011      -211.30548      1298.4003      3738.5352      7.3487531    
   2735000   306.92743     -219.90395      1266.2429      3791.016       12.18459     
   2740000   303.06054     -215.62064      1265.8296      3760.3066      6.6663336    
   2745000   301.65305     -216.44253      1259.3718      3740.4406      7.6054542    
   2750000   304.62357     -212.085        1284.9015      3796.8916      10.462117    
   2755000   291.3909      -208.06852      1237.2751      3634.9494      3.933344     
   2760000   298.776       -214.8498       1313.3974      3770.3311      7.3038938    
   2765000   293.7812      -208.6477       1309.8919      3728.3621      1.8544401    
   2770000   301.21733     -204.13977      1291.6955      3781.1707      5.0647485    
   2775000   305.78646     -205.01568      1251.0209      3780.4793      4.5541723    
   2780000   299.54894     -209.95803      1272.7791      3741.5166      10.428807    
   2785000   300.46995     -206.39215      1297.4323      3777.9717      13.027777    
   2790000   304.00478     -208.82887      1338.7436      3848.4562      7.3700847    
   2795000   294.70901     -204.47755      1245.8257      3676.7629      18.088861    
   2800000   306.23192     -214.91179      1278.6132      3802.159       12.142597    
   2805000   296.93505     -216.14562      1289.1124      3728.2878      6.4907973    
   2810000   304.8256      -226.50952      1268.0487      3767.4208      12.905073    
   2815000   298.92781     -209.11892      1280.3029      3744.325       4.9812473    
   2820000   302.27376     -209.14888      1303.3352      3797.2483      10.067343    
   2825000   305.28303     -199.22986      1265.263       3796.0053      18.291555    
   2830000   304.45356     -190.89943      1278.8801      3810.5354      8.6125743    
   2835000   300.2709      -202.90578      1254.8971      3737.1428      5.6659812    
   2840000   300.42686     -197.24537      1233.5324      3722.8332      4.4844738    
   2845000   296.8684      -222.31142      1238.9844      3671.398       6.1160974    
   2850000   301.28445     -215.20769      1310.6871      3789.6946      9.7626047    
   2855000   302.43906     -202.82953      1331.4817      3833.1924      8.8002626    
   2860000   299.26242     -219.44492      1274.5858      3731.2741      10.840693    
   2865000   303.07373     -203.34184      1272.7946      3779.6684      3.2803324    
   2870000   295.51322     -206.95223      1267.0082      3702.6623      8.9509895    
   2875000   294.7508      -196.57414      1291.1429      3730.3572      8.9213826    
   2880000   291.86976     -200.23863      1268.3093      3678.0956      6.4511296    
   2885000   304.73106     -217.11397      1301.4628      3809.385       7.1843501    
   2890000   296.37635     -188.74699      1263.5235      3725.1014      7.4018399    
   2895000   296.8598      -203.68731      1302.2719      3753.2326      5.5683561    
   2900000   308.86947     -214.5991       1247.7048      3795.1494      17.624048    
   2905000   300.98385     -211.15493      1284.1609      3764.533       6.4414477    
   2910000   296.6161      -202.40411      1292.1685      3742.2332      4.0922696    
   2915000   293.8328      -202.90163      1322.2225      3746.9002      9.9090704    
   2920000   300.69499     -203.6614       1256.5705      3741.8531      1.7485489    
   2925000   305.86639     -200.18542      1267.1408      3802.1442      19.917371    
   2930000   295.17389     -218.12712      1371.1251      3792.5698      3.3777681    
   2935000   293.87362     -228.10536      1281.4068      3681.2458      9.4089891    
   2940000   308.91415     -188.42896      1283.2689      3857.2832      4.6131067    
   2945000   304.00732     -206.84222      1245.6842      3757.4062      9.5746487    
   2950000   296.13146     -239.30918      1291.9392      3700.7649      7.86398      
   2955000   297.1723      -209.31416      1250.0785      3698.2069      11.836593    
   2960000   290.19842     -214.56828      1234.4698      3614.9807     -1.9709449    
   2965000   299.92368     -227.61995      1309.6018      3764.0284      13.324937    
   2970000   302.01611     -230.82732      1271.8437      3741.7744      10.255019    
   2975000   299.69328     -222.94733      1325.3979      3782.4368      12.539568    
   2980000   305.93674     -213.63843      1281.5782      3803.7577      1.8461461    
   2985000   304.98961     -205.74687      1273.9283      3795.5298      8.8406557    
   2990000   300.36598     -189.68941      1303.6873      3799.9996      2.3392426    
   2995000   292.7694      -211.83057      1294.2959      3700.5352      6.87455      
   3000000   288.00486     -210.55726      1291.8638      3656.7699      3.0513134    
   3005000   304.11235     -204.20079      1253.8729      3769.1756      7.3750772    
   3010000   296.66029     -212.5208       1257.3138      3697.6569      5.3500178    
   3015000   302.56168     -194.68825      1283.3877      3794.3361      3.9087679    
   3020000   304.3647      -203.33286      1264.5994      3783.0267      7.8859119    
   3025000   299.13996     -199.13167      1264.3165      3740.223       7.9177561    
   3030000   298.1711      -212.0669       1238.4161      3692.7234      12.347623    
   3035000   296.73039     -225.40626      1244.8691      3672.9536      5.4519426    
   3040000   305.50064     -218.41027      1313.9378      3827.4457      1.9405733    
   3045000   301.30503     -198.22076      1317.4391      3813.6175      10.127197    
   3050000   304.60877     -207.18613      1261.1751      3777.9317      6.2488063    
   3055000   306.93593     -198.78603      1282.2168      3828.1839      4.2483484    
   3060000   303.26162     -213.1245       1283.2164      3781.9877      4.3705182    
   3065000   301.24861     -195.00104      1258.3236      3757.2171      4.6462873    
   3070000   293.99708     -198.61464      1242.6169      3673.0506      7.5507607    
   3075000   303.483       -200.11967      1298.6272      3812.383       7.4614721    
   3080000   299.44656     -198.6866       1276.7951      3755.8884      1.7167866    
   3085000   299.09703     -219.0929       1265.9674      3721.5288      7.7399017    
   3090000   293.12699     -197.86197      1281.1197      3704.5253      4.9458825    
   3095000   310.65692     -213.28127      1299.4253      3864.1718      9.7316359    
   3100000   299.49005     -220.44562      1261.8849      3719.6082      5.7732964    
   3105000   298.82477     -213.07955      1298.096       3757.2361      9.5751338    
   3110000   304.60604     -211.88425      1320.3204      3832.3544      18.799016    
   3115000   298.30017     -204.03512      1229.2819      3692.7753      9.6970571    
   3120000   299.67273     -235.39136      1274.6538      3719.0649      5.8886769    
   3125000   305.70809     -201.57857      1301.2236      3833.4183      14.28747     
   3130000   298.40428     -190.57245      1282.8812      3760.7681      7.1563131    
   3135000   295.96306     -210.49317      1245.1831      3681.319       6.256097     
   3140000   299.51301     -229.73399      1270.2657      3718.9059      6.4523193    
   3145000   299.89348     -210.82332      1311.639       3782.5922     -4.0994436    
   3150000   297.21711     -199.55342      1223.7196      3682.0094      10.489308    
   3155000   296.27026     -192.37475      1312.7897      3769.7911      7.3989601    
   3160000   297.44115     -214.67344      1257.8641      3703.0374      6.7007174    
   3165000   304.72077     -197.73415      1287.966       3815.176       17.242029    
   3170000   296.68179     -200.70521      1266.8324      3719.1834      6.9965069    
   3175000   303.2226      -204.69151      1280.5723      3787.4277      3.9440584    
   3180000   298.25596     -202.42883      1297.9321      3762.6364      5.0656862    
   3185000   309.17258     -207.79238      1322.9597      3879.9215      3.7550501    
   3190000   304.45923     -217.91147      1298.1862      3802.8801      12.842025    
   3195000   304.6868      -215.3452       1296.2524      3805.5477      10.970742    
   3200000   295.7139      -203.57463      1272.2217      3713.0479      8.6352962    
   3205000   295.38074     -223.93606      1281.6632      3699.1488      2.2348101    
   3210000   302.90929     -199.7171       1290.3903      3799.4184      7.9697968    
   3215000   301.55395     -225.0769       1338.4081      3809.9563      7.9462271    
   3220000   297.18752     -219.16797      1283.5828      3721.9934      7.4585456    
   3225000   296.07883     -212.25157      1274.3575      3709.7702      6.1790839    
   3230000   301.35794     -209.08972      1252.4906      3738.2732      12.936751    
   3235000   306.36498     -225.72027      1258.6474      3772.5747      17.891128    
   3240000   300.16843     -213.1599       1292.7624      3763.8378      9.573415     
   3245000   301.34084     -228.64057      1279.5534      3745.6322      6.9941588    
   3250000   304.57215     -214.77283      1297.6906      3806.5329      5.482804     
   3255000   301.33781     -212.88403      1258.9423      3740.7506      8.8222706    
   3260000   304.90332     -211.86129      1264.188       3778.9034      10.137571    
   3265000   288.92989     -195.90552      1256.7846      3644.6144      6.111284     
   3270000   303.6977      -208.76541      1322.0465      3829.0766      9.4423158    
   3275000   310.23584     -203.24845      1294.4712      3865.4851      7.1267527    
   3280000   299.81864     -200.87859      1264.451       3744.6797      7.5226216    
   3285000   305.88255     -214.85501      1250.7888      3771.2671      9.1902254    
   3290000   301.74946     -197.72339      1299.3442      3799.9943      16.492881    
   3295000   299.33071     -192.45747      1275.7914      3760.078       12.565081    
   3300000   293.46576     -217.30511      1266.4859      3673.4778     -2.0829219    
   3305000   295.25035     -214.36383      1270.3794      3696.2712      8.8850051    
   3310000   295.53632     -214.87937      1321.5206      3749.4541      10.593078    
   3315000   297.70355     -209.53246      1301.2         3753.8608      12.217709    
   3320000   294.17108     -212.32836      1265.6675      3683.9435      6.78194      
   3325000   303.87842     -215.71043      1270.7118      3772.4129      13.5547      
   3330000   299.73274     -208.74414      1305.0843      3776.6792      8.5868602    
   3335000   294.92521     -212.03014      1302.412       3727.73        2.7227575    
   3340000   295.5106      -209.49272      1219.4536      3652.5438      4.8767992    
   3345000   300.54231     -204.21461      1298.9478      3782.3119      3.9398576    
   3350000   301.10169     -204.4382       1264.8499      3752.9926      4.8031753    
   3355000   293.81565     -197.39409      1268.1203      3698.1521      4.6833635    
   3360000   298.31986     -214.31411      1267.4197      3720.8102      12.176382    
   3365000   299.50512     -211.40721      1266.0883      3732.9847      5.0068051    
   3370000   294.93932     -222.29597      1289.6565      3704.8347      4.4163077    
   3375000   299.15876     -201.47579      1268.3891      3742.1196      9.1049832    
   3380000   298.73705     -193.7785       1303.577       3781.2337      9.3217853    
   3385000   300.24741     -219.76517      1292.8949      3758.0713      11.142968    
   3390000   296.83106     -213.47342      1232.7966      3673.7142      7.3443459    
   3395000   296.67228     -196.84685      1312.8403      3768.9646      12.642493    
   3400000   298.72893     -201.2975       1275.421       3745.486       7.2212832    
   3405000   309.26752     -212.25959      1281.5113      3834.8549      15.682324    
   3410000   292.48521     -210.9161       1284.7789      3689.3913      4.7482067    
   3415000   295.30122     -213.2463       1299.0703      3726.5346      4.1894134    
   3420000   303.0234      -208.08928      1318.8653      3820.5416      5.7691635    
   3425000   303.10647     -221.52745      1286.0563      3775.0373      10.281662    
   3430000   297.56327     -218.91086      1288.8063      3730.8342      4.6388628    
   3435000   308.08339     -204.97168      1257.9674      3808.0099      7.9248185    
   3440000   309.60167     -216.96137      1217.3492      3768.9791      8.0458675    
   3445000   305.01695     -213.93711      1311.9622      3825.6179      4.6836162    
   3450000   294.27876     -219.29762      1321.0231      3733.2928      9.833241     
   3455000   299.13427     -219.80213      1313.3293      3768.5145      3.2752289    
   3460000   288.89906     -198.78442      1250.9401      3635.6154      12.672929    
   3465000   304.41705     -210.61523      1238.9967      3750.6097      8.965248     
   3470000   305.22723     -214.63519      1255.4251      3770.2631      2.4611114    
   3475000   304.03498     -190.17693      1242.709       3771.3436      10.952318    
   3480000   304.96671     -198.71353      1283.3831      3811.8131      4.696828     
   3485000   298.04127     -202.2628       1256.699       3719.6495      3.8085036    
   3490000   302.42071     -201.81909      1274.4378      3776.9948      10.848976    
   3495000   297.81665     -202.91285      1288.2857      3748.5775      11.545335    
   3500000   295.48331     -208.96519      1196.0545      3629.4281      4.938054     
   3505000   307.92728     -202.48918      1305.4096      3856.5387      6.9914138    
   3510000   295.10003     -203.99926      1324.3152      3759.2273      3.003833     
   3515000   296.30122     -203.91797      1288.6312      3734.3662      5.9346469    
   3520000   301.72668     -206.7712       1255.504       3746.9026      3.5387357    
   3525000   298.91415     -198.83158      1261.5297      3735.7171      8.9896708    
   3530000   302.97571     -203.76074      1285.5221      3791.1005      10.287661    
   3535000   301.55044     -212.61972      1283.1935      3767.1675      11.330299    
   3540000   302.00048     -196.82385      1297.297       3801.0913      9.0430528    
   3545000   299.7472      -217.00822      1267.0818      3730.542       9.5593255    
   3550000   299.54758     -221.46575      1302.2918      3759.5094      4.0639817    
   3555000   299.49407     -203.10759      1308.5676      3783.6648      5.7773657    
   3560000   300.22833     -203.07594      1288.1375      3769.8325      12.892788    
   3565000   298.82213     -209.07801      1250.781       3713.899       10.116018    
   3570000   294.70509     -204.86981      1272.153       3702.6629      11.946471    
   3575000   300.30063     -203.39839      1264.2279      3746.247       12.799766    
   3580000   293.50373     -210.47578      1253.0084      3667.1693      15.463449    
   3585000   302.48142     -211.55711      1271.9342      3765.2961      12.968194    
   3590000   300.1452      -207.37624      1342.6161      3819.2674      1.4937327    
   3595000   293.82048     -209.36943      1297.4734      3715.573       5.3043098    
   3600000   304.21988     -206.70063      1297.8096      3811.574       14.864309    
   3605000   300.69072     -208.02676      1270.1625      3751.0415      8.6953918    
   3610000   289.46468     -208.2776       1293.6218      3673.8619      4.9974901    
   3615000   297.73615     -210.35587      1311.1261      3763.255      -1.7709525    
   3620000   301.57464     -211.87192      1305.6476      3790.5859     -0.29850329   
   3625000   295.13217     -202.61953      1320.2629      3756.8421      1.4459958    
   3630000   299.76446     -221.74393      1291.3015      3750.1803      2.6408595    
   3635000   296.29941     -228.2165       1277.3962      3698.8164      13.224213    
   3640000   305.49379     -212.00736      1271.0711      3790.9206      10.150483    
   3645000   299.03732     -216.36212      1290.5322      3748.2904      12.036085    
   3650000   304.53213     -228.3853       1304.6361      3799.508       9.1659395    
   3655000   299.85087     -217.48353      1290.7317      3754.6437      10.862018    
   3660000   305.3143      -204.13509      1231.7709      3757.8876      5.3586122    
   3665000   303.05926     -205.3351       1307.9099      3812.6611      7.5508366    
   3670000   297.82103     -222.51976      1258.7118      3699.4358      4.3119031    
   3675000   298.18189     -208.09603      1305.3383      3763.713       7.5468629    
   3680000   301.37293     -205.39726      1288.7331      3778.3422      3.1794582    
   3685000   303.48769     -214.41411      1307.3129      3806.8162      4.1688377    
   3690000   299.55693     -224.2374       1298.6864      3753.216       0.43739314   
   3695000   294.95152     -219.70177      1260.4279      3678.3095      12.649875    
   3700000   301.19982     -203.08189      1298.3865      3788.7629      12.49603     
   3705000   305.7153      -210.08077      1288.4158      3812.1728      6.981002     
   3710000   299.12457     -181.56425      1303.3968      3796.7332      9.2224308    
   3715000   302.25517     -209.20553      1304.0206      3797.7108      8.6988056    
   3720000   296.41797     -208.79163      1285.1478      3727.0532      7.6729478    
   3725000   306.02733     -207.49527      1278.5388      3807.6716      11.119933    
   3730000   295.71615     -194.31896      1282.6315      3732.7335      8.4577799    
   3735000   301.28815     -194.19821      1297.306       3797.356       10.97421     
   3740000   297.82949     -217.13981      1280.9802      3727.1598      5.2541277    
   3745000   301.76184     -215.02835      1253.4801      3736.936       7.935653     
   3750000   296.80003     -208.6629       1260.8523      3706.3029      11.603807    
   3755000   301.79088     -195.84351      1251.3255      3754.2259      5.0202408    
   3760000   300.59177     -196.94527      1316.6107      3807.6863      1.3667337    
   3765000   303.46064     -187.98627      1295.9112      3821.6005      1.0071752    
   3770000   302.22412     -212.0438       1284.5547      3775.129       9.1438763    
   3775000   301.68327     -228.52896      1316.395       3785.6476      1.4119972    
   3780000   309.94609     -204.90468      1315.9839      3882.7505      5.4808475    
   3785000   298.84766     -215.04826      1321.0013      3778.3774      9.9953868    
   3790000   294.63638     -206.15145      1281.7845      3710.3984      10.172063    
   3795000   300.63867     -199.4713       1277.0123      3765.9813      8.7294541    
   3800000   290.34812     -207.16983      1282.7876      3672.0356      5.6471894    
   3805000   293.26788     -192.98722      1254.1835      3683.7238      7.5282444    
   3810000   300.17091     -221.13371      1321.1553      3784.279       10.596936    
   3815000   303.70333     -183.27153      1275.1029      3807.6771      11.223831    
   3820000   301.70089     -214.22959      1293.5571      3777.2666      9.9280248    
   3825000   294.07199     -197.92454      1263.0327      3694.8264      5.3267412    
   3830000   297.14399     -211.77462      1292.4044      3737.8191      4.884609     
   3835000   299.74949     -212.64772      1276.7123      3744.5535      2.2695268    
   3840000   292.86086     -213.33105      1345.6459      3751.2027      4.9749577    
   3845000   302.69906     -203.34924      1273.7127      3777.2287      11.246431    
   3850000   301.7283      -203.74006      1286.2613      3780.7055      3.2206486    
   3855000   296.51101     -205.7743       1266.4885      3712.2432      9.2839524    
   3860000   304.21675     -211.22863      1288.3506      3797.559       5.0362142    
   3865000   302.51904     -206.28529      1302.5476      3801.5177      5.8652546    
   3870000   295.52048     -199.74548      1247.9827      3690.9085      9.6677049    
   3875000   296.45096     -214.40526      1276.9013      3713.488       12.022794    
   3880000   297.81273     -210.89383      1302.2013      3754.477       11.482128    
   3885000   297.75515     -218.45894      1279.1218      3723.3175      13.282664    
   3890000   302.15818     -199.89264      1265.9157      3768.0515      8.4243562    
   3895000   304.43928     -199.19136      1330.1809      3853.4165      10.52946     
   3900000   298.73234     -211.62459      1310.7776      3770.546       7.2400189    
   3905000   303.57753     -203.79436      1286.4817      3797.4082      6.4074115    
   3910000   299.32342     -218.18115      1298.8434      3757.341       5.2342248    
   3915000   303.85271     -203.03598      1315.3992      3829.5449      14.059934    
   3920000   295.45684     -210.86886      1295.0256      3726.2589      10.668678    
   3925000   299.43037     -205.10377      1312.3675      3784.8989      9.3038365    
   3930000   307.20581     -217.6925       1321.7995      3851.2735      3.9433509    
   3935000   298.05439     -206.9009       1288.7464      3747.1761      5.006329     
   3940000   311.58472     -206.53449      1318.2373      3898.0274      12.205485    
   3945000   297.29856     -218.31438      1249.052       3689.3092      10.728056    
   3950000   303.61746     -217.56358      1285.6371      3783.1515      8.4635344    
   3955000   293.22947     -197.84832      1300.6893      3725.025       2.8106108    
   3960000   299.32215     -210.45006      1260.6363      3726.8536      5.0428384    
   3965000   299.19024     -211.09691      1271.124       3735.5149      8.1787909    
   3970000   302.7551      -221.72933      1290.8014      3776.4383      10.210718    
   3975000   306.94805     -232.40692      1270.1876      3782.6423      6.3371287    
   3980000   302.43288     -200.83239      1273.3087      3776.9612      2.0732289    
   3985000   293.31477     -213.82923      1278.1345      3687.2521      5.432698     
   3990000   298.84286     -221.53773      1287.5449      3738.3885      9.3573516    
   3995000   297.74058     -218.78278      1303.8571      3747.5986      13.634278    
   4000000   297.85643     -221.08156      1276.2603      3718.7391      8.7811278    
   4005000   303.49417     -209.07313      1301.3924      3806.2947      11.311227    
   4010000   298.48307     -223.0747       1250.7332      3696.8225      2.3565957    
   4015000   300.02992     -206.53761      1301.8591      3778.318       10.927288    
   4020000   293.91548     -209.71562      1278.965       3697.568       8.7134912    
   4025000   295.59928     -208.95519      1253.2978      3687.7185      6.0571516    
   4030000   300.16835     -208.13068      1293.2386      3769.3424      9.366472     
   4035000   295.88997     -216.81362      1238.3312      3667.493       15.28067     
   4040000   296.95188     -209.82565      1287.4765      3733.1224      9.7808513    
   4045000   292.23676     -188.13362      1257.5564      3682.7296      8.0528031    
   4050000   303.12477     -197.5321       1260.4096      3773.5496      2.4179767    
   4055000   305.73056     -210.85228      1262.9471      3786.069       4.359096     
[...]
  23945000   301.01628     -202.63125      1306.1664      3795.3522      5.6371648    
  23950000   295.21287     -218.58452      1306.3549      3727.6908      2.4992563    
  23955000   299.56099     -219.40971      1283.3803      3742.7738      13.792746    
  23960000   295.87088     -211.81644      1233.6071      3667.5952      7.8542236    
  23965000   302.29695     -208.7659       1248.9226      3743.426       6.0266467    
  23970000   302.03259     -207.5102       1306.2047      3799.5998      11.666998    
  23975000   308.75379     -211.4419       1272.6518      3822.2191      4.9135024    
  23980000   295.70721     -202.34069      1257.3224      3699.3228      6.1173733    
  23985000   303.64758     -202.80414      1252.0864      3764.6295      8.7650125    
  23990000   291.67775     -203.42832      1325.9306      3730.8102      7.7572127    
  23995000   290.98882     -237.82952      1234.7576      3599.0753      13.136982    
  24000000   299.53138     -220.64146      1263.7864      3721.6834      10.555413    
  24005000   292.71768     -214.0392       1248.8139      3652.3821      8.1620591    
  24010000   295.87327     -213.77808      1326.2218      3758.2698      2.5926467    
  24015000   299.0223      -224.48576      1289.0444      3738.5446      0.65440855   
  24020000   296.76815     -203.38593      1240.6704      3691.1129      11.231149    
  24025000   294.00956     -213.88722      1272.49        3687.7627      6.1650033    
  24030000   299.87876     -202.20598      1286.819       3766.2579      3.8288026    
  24035000   307.77859     -198.08975      1243.3534      3797.5522      12.564668    
  24040000   298.11276     -194.58866      1277.426       3748.6898      3.4689594    
  24045000   302.44863     -200.97451      1264.7529      3768.4041      15.419073    
  24050000   307.58033     -196.36702      1314.3839      3868.5325      7.2857149    
  24055000   298.40006     -215.35864      1286.2335      3739.2965      8.2534589    
  24060000   297.25624     -211.51442      1285.2308      3731.9096      5.414808     
  24065000   301.07271     -226.04881      1280.2762      3746.549       2.0234146    
  24070000   299.79788     -207.02514      1257.8179      3731.7144      11.346897    
  24075000   294.43636     -212.80365      1223.5794      3643.7524      6.5026912    
  24080000   304.23182     -209.73531      1285.0717      3795.9082      9.7838129    
  24085000   302.17239     -186.50085      1290.5479      3806.2026      4.815046     
  24090000   292.94961     -208.8016       1318.6712      3729.551       3.5141521    
  24095000   292.67843     -203.4918       1277.5723      3691.337       2.5186239    
  24100000   300.06539     -212.0321       1234.8004      3706.0821      7.4283261    
  24105000   301.15719     -214.8072       1269.3666      3747.6365      7.1239751    
  24110000   302.38774     -213.23973      1238.0155      3728.8571      12.44645     
  24115000   302.25592     -225.11461      1267.3512      3745.1391      2.3675371    
  24120000   300.38681     -218.0478       1268.0721      3736.2124      5.7747362    
  24125000   298.31264     -212.96213      1293.4812      3748.159       9.6982394    
  24130000   305.78331     -209.94772      1293.8036      3818.3018      5.6180335    
  24135000   293.27026     -218.42274      1264.9016      3669.0277      10.138098    
  24140000   301.86207     -225.87795      1337.315       3810.8175      1.3399826    
  24145000   298.06106     -212.73165      1294.8853      3747.5439      9.4011931    
  24150000   296.42672     -229.40428      1268.2936      3689.6646      10.705587    
  24155000   297.28083     -227.55724      1301.7613      3732.6172     -0.0062417226 
  24160000   298.1483      -222.83525      1265.3733      3708.7083      2.7885523    
  24165000   292.17527     -200.9308       1276.246       3688.0722      2.4563325    
  24170000   303.6958      -201.91268      1237.5918      3751.4576      12.431415    
  24175000   304.32609     -185.25397      1309.3626      3845.5234      7.4453657    
  24180000   286.50425     -210.91316      1240.344       3591.4751      10.906858    
  24185000   297.1447      -214.97318      1280.252       3722.4745      10.534444    
  24190000   299.70479     -220.12724      1263.0461      3723.008       7.0699623    
  24195000   304.69541     -192.99182      1276.412       3808.1377      5.1266211    
  24200000   304.82127     -205.51613      1233.986       3754.3128     -0.74175864   
  24205000   308.45542     -204.44921      1231.9526      3785.8444      5.7815258    
  24210000   297.02135     -232.31666      1342.5394      3766.3154      6.7327209    
  24215000   305.13085     -214.65945      1288.5356      3802.4874      5.6565437    
  24220000   300.60084     -218.19588      1246.849       3716.7551      14.836445    
  24225000   302.63116     -208.74398      1258.2675      3755.7816      4.5435376    
  24230000   300.02278     -211.84308      1257.6623      3728.752       4.67442      
  24235000   302.09179     -203.58337      1325.3059      3823.1572      14.787485    
  24240000   296.87234     -198.85725      1285.167       3741.0699      8.2821934    
  24245000   293.69851     -207.30486      1276.0108      3695.0844      1.6332913    
  24250000   298.59506     -223.21407      1313.8793      3760.8307      5.8163718    
  24255000   298.93371     -203.01219      1283.8138      3753.9954      2.7717212    
  24260000   293.51348     -197.44193      1266.5331      3693.8149      4.8791218    
  24265000   302.02202     -211.87423      1305.4171      3794.3537      4.3943428    
  24270000   295.64253     -224.95656      1255.1804      3673.9865      7.7523228    
  24275000   298.13558     -194.98054      1318.613       3789.689       5.5442055    
  24280000   296.23632     -204.06243      1290.626       3735.6362      5.590924     
  24285000   303.01376     -199.75216      1294.8739      3804.8011      1.8607161    
  24290000   297.84248     -217.17524      1225.2946      3671.5549      12.172292    
  24295000   295.83522     -229.45885      1312.1125      3728.1394      6.8398377    
  24300000   298.50423     -221.25955      1284.5307      3732.6245      7.6859836    
  24305000   298.60245     -210.69778      1295.9385      3755.4723     -3.7342038    
  24310000   299.44808     -215.51552      1259.9682      3722.2463      7.2968626    
  24315000   312.39017     -198.54932      1264.2203      3859.1982      11.954441    
  24320000   299.00275     -232.22864      1292.453       3734.0355      7.8037072    
  24325000   299.50035     -215.51017      1243.4555      3706.2063      9.4166026    
  24330000   297.26235     -219.5363       1322.0187      3760.7302      9.2744549    
  24335000   294.38701     -223.81892      1250.0597      3658.776       12.209415    
  24340000   300.17843     -213.41538      1296.6897      3767.599       3.5601133    
  24345000   295.42589     -215.56553      1253.7206      3679.9805      13.451814    
  24350000   301.46438     -220.3509       1249.856       3725.3293      6.8311108    
  24355000   307.18879     -205.84415      1253.2778      3794.448       16.795371    
  24360000   303.1068      -199.78994      1290.702       3801.4234      2.4764809    
  24365000   294.39948     -204.12035      1258.9708      3687.4973      11.08756     
  24370000   297.42122     -204.41083      1313.7736      3769.0312      4.8625109    
  24375000   302.21025     -201.42139      1306.1329      3807.2056      9.9258564    
  24380000   300.63225     -208.90533      1260.3127      3739.7903      4.5849894    
  24385000   303.50021     -193.87331      1324.5192      3844.6753      1.5369683    
  24390000   296.93933     -203.39808      1275.0845      3727.0457      4.4863714    
  24395000   291.5834      -192.73293      1230.3724      3645.1037      7.0401705    
  24400000   302.31638     -210.42973      1260.6021      3753.6154      0.72393908   
  24405000   305.5449      -211.88841      1289.0537      3809.4793      7.0789013    
  24410000   298.81946     -202.68363      1303.6892      3773.1777      6.4017613    
  24415000   299.936       -201.20789      1290.4578      3771.4067      6.999456     
  24420000   293.23237     -221.73919      1301.7664      3702.2373      5.9810136    
  24425000   304.72081     -205.73845      1253.2587      3772.4647      6.3045749    
  24430000   304.97227     -223.42391      1298.4536      3802.2229      5.1740552    
  24435000   301.47534     -194.07145      1286.122       3787.9728      2.5826847    
  24440000   311.70967     -216.25069      1265.4477      3836.6389      9.1051618    
  24445000   297.01288     -198.5968       1316.98        3774.4002      10.633329    
  24450000   300.36267     -202.60379      1355.7607      3839.1291      8.6970696    
  24455000   299.09219     -213.57177      1265.3221      3726.3613      8.5502827    
  24460000   309.12306     -211.84264      1293.7359      3846.2047      7.0698977    
  24465000   303.11676     -220.31699      1291.7036      3781.987       10.838815    
  24470000   300.42384     -213.87075      1257.4632      3730.1117      8.0522542    
  24475000   304.37684     -213.98525      1251.981       3759.8644      11.154754    
  24480000   292.5721      -218.18307      1313.7362      3711.8587      2.1030374    
  24485000   307.88198     -216.16561      1246.6509      3783.6984      16.025616    
  24490000   300.33267     -210.81949      1271.8325      3746.7169      0.93672038   
  24495000   302.45697     -228.48383      1265.5408      3741.7573      7.1116256    
  24500000   303.95935     -206.03815      1264.8784      3776.9755      9.2786521    
  24505000   304.69634     -193.74476      1291.5415      3822.5224      13.661649    
  24510000   303.15113     -228.20804      1318.4885      3801.1883      6.705376     
  24515000   302.71046     -217.68428      1286.9427      3776.2255      9.4650936    
  24520000   300.82577     -205.30597      1299.7287      3784.5361      6.1450422    
  24525000   290.19167     -203.19115      1313.5336      3705.3612      6.0546886    
  24530000   297.00897     -210.67576      1256.3885      3701.6947      9.7906887    
  24535000   299.11695     -222.13882      1291.8438      3744.5374      10.386662    
  24540000   305.89568     -201.73197      1313.9195      3847.6383      4.5274647    
  24545000   304.9909      -224.23836      1256.7054      3759.8269      8.1050617    
  24550000   299.58874     -228.01651      1287.5466      3738.5815      8.0768566    
  24555000   307.38227     -212.01263      1276.6171      3813.349       8.9279251    
  24560000   291.53378     -205.28232      1301.6228      3703.361       7.9480993    
  24565000   304.65409     -202.58778      1283.6867      3805.4469      13.491417    
  24570000   294.95062     -209.53345      1283.2085      3711.2504      2.9089315    
  24575000   301.11501     -208.11052      1284.0066      3768.596       11.529692    
  24580000   301.40146     -196.5238       1305.0281      3803.7658      4.4639123    
  24585000   299.85745     -206.57257      1311.4987      3786.3804      5.915168     
  24590000   299.64272     -214.37558      1296.6103      3761.7688      8.9699847    
  24595000   287.67958     -207.36607      1285.6102      3650.7987      6.6708684    
  24600000   303.5773      -214.1674       1283.9358      3784.4872     -0.24518281   
  24605000   302.85043     -197.23397      1315.3122      3826.2971      8.8873834    
  24610000   313.94347     -215.30375      1273.2835      3865.3973      9.8316624    
  24615000   301.93785     -203.35335      1322.4817      3819.1865      0.48398105   
  24620000   300.7336      -206.27517      1275.2014      3758.2155      10.842427    
  24625000   310.73112     -196.38618      1278.1262      3860.4314      9.3732592    
  24630000   296.88193     -222.37719      1266.4522      3698.9209      0.79186193   
  24635000   300.05454     -212.36823      1301.2391      3772.0877      2.4428731    
  24640000   298.18711     -193.55895      1264.8211      3737.7795      8.6149532    
  24645000   303.32064     -205.71761      1269.5604      3776.2664      4.9580474    
  24650000   295.08383     -207.8196       1268.3557      3699.3026      9.3007595    
  24655000   301.59985     -204.96792      1306.712       3798.7797      4.7282611    
  24660000   306.10715     -218.52309      1247.1096      3765.9283      11.546883    
  24665000   297.79734     -226.62275      1261.1388      3697.548       14.240469    
  24670000   297.80607     -205.78379      1267.6119      3724.938       9.5149381    
  24675000   307.09041     -213.13877      1273.4509      3806.4466      19.234053    
  24680000   299.47781     -213.70082      1284.2062      3748.5648      4.5223441    
  24685000   301.17289     -203.84182      1315.0751      3804.4508      9.4109446    
  24690000   302.75106     -206.17813      1281.4773      3782.6293      3.323966     
  24695000   299.30434     -207.93773      1277.2747      3745.8451      3.5266939    
  24700000   300.54006     -221.97089      1285.4626      3751.0503      10.99102     
  24705000   302.59843     -233.5821       1297.3153      3769.6986      15.622004    
  24710000   300.41397     -230.61291      1252.187       3708.0051      11.351123    
  24715000   300.82966     -197.77383      1275.4763      3767.8507      9.8733727    
  24720000   305.4698      -207.17026      1299.2115      3823.6835      13.985289    
  24725000   301.47607     -212.20731      1285.4553      3769.1767      4.0191668    
  24730000   298.56257     -202.42641      1235.7179      3703.1665      16.060761    
  24735000   301.28672     -204.7189       1332.1246      3821.6412      4.4862837    
  24740000   304.29677     -210.61643      1233.6924      3744.2285      11.108032    
  24745000   306.24127     -208.8659       1266.8793      3796.5545      8.6399703    
  24750000   300.24776     -220.80453      1267.5172      3731.6573      2.9374966    
  24755000   297.36687     -210.25998      1314.6775      3763.6         9.1000033    
  24760000   297.53615     -221.77896      1255.9871      3694.9044      16.197789    
  24765000   305.80566     -227.11201      1281.3286      3788.8624      5.711198     
  24770000   296.12294     -202.12769      1263.8803      3709.8113      9.7529543    
  24775000   301.95759     -209.86146      1274.7672      3765.1404      4.848267     
  24780000   302.86354     -202.33406      1300.2451      3806.2471      8.6432976    
  24785000   290.78002     -207.53673      1312.936       3705.6793      9.4924867    
  24790000   304.30662     -207.54817      1267.1879      3780.8805      4.8186278    
  24795000   303.15532     -192.67847      1335.5994      3853.8662      6.5497504    
  24800000   294.89096     -202.33711      1288.9736      3723.6784      4.9101548    
  24805000   302.56898     -203.97569      1260.4168      3762.143       10.126453    
  24810000   296.46664     -216.60328      1255.7321      3690.2611      6.1187508    
  24815000   286.73747     -225.20057      1282.801       3621.7302     -2.8276059    
  24820000   304.023       -198.2801       1340.7153      3861.1396      18.00086     
  24825000   299.44202     -221.03246      1300.1684      3756.8752      9.8118301    
  24830000   306.559       -214.23618      1275.6747      3802.821       7.7829176    
  24835000   300.24054     -202.38806      1300.3436      3782.8356      8.7679513    
  24840000   293.61826     -205.53159      1278.9975      3699.1268      4.7377589    
  24845000   301.42579     -204.82485      1290.0114      3780.6656      7.2802338    
  24850000   299.43926     -197.1365       1250.7817      3731.3599      11.216298    
  24855000   312.78061     -211.25443      1291.4494      3877.2137      6.9585483    
  24860000   297.20666     -212.65299      1286.8679      3731.9647      6.4432921    
  24865000   301.59092     -200.79866      1273.2573      3769.4144      11.750056    
  24870000   300.74768     -199.1919       1309.6917      3799.9149      8.7694995    
  24875000   299.14973     -226.58969      1261.8364      3710.3723      8.3712972    
  24880000   302.17971     -197.4749       1265.7048      3770.4509      5.7721201    
  24885000   303.63926     -207.78158      1250.7168      3758.2081      6.2137156    
  24890000   295.496       -198.89382      1251.6415      3695.2         12.506167    
  24895000   307.17074     -235.13728      1272.9165      3784.6321      5.165072     
  24900000   298.8818      -192.54872      1229.9758      3710.1566      9.9170812    
  24905000   297.5812      -213.2432       1308.7463      3756.6021      14.945141    
  24910000   299.35904     -207.81784      1262.6072      3731.7866      10.149716    
  24915000   291.14848     -220.41906      1256.2034      3639.3593      10.810275    
  24920000   298.20635     -199.60413      1277.522       3744.6073      9.9393539    
  24925000   294.23922     -229.8562       1230.6582      3632.0157      11.387046    
  24930000   299.36241     -198.05445      1300.696       3779.669       9.2238672    
  24935000   298.20775     -204.99752      1232.6969      3694.4013      6.9713429    
  24940000   303.45712     -201.3064       1286.4572      3798.7949      6.5227515    
  24945000   301.09535     -190.23878      1251.6363      3753.9217     -0.9254557    
  24950000   311.1481      -203.6731       1326.175       3904.9221      7.6381212    
  24955000   299.03959     -206.17952      1297.7149      3765.676       10.0763      
  24960000   298.88795     -216.1665       1307.1085      3763.7266      9.7376855    
  24965000   299.37753     -212.12523      1247.1649      3712.2023      13.368746    
  24970000   300.63944     -212.83387      1257.2961      3732.9095      8.869353     
  24975000   299.35701     -210.65406      1296.1566      3762.4817      15.312444    
  24980000   302.32816     -202.36494      1287.1255      3788.309       9.3637159    
  24985000   291.36452     -206.06875      1226.7233      3626.1614      3.0617058    
  24990000   302.39434     -211.3695       1321.9515      3814.7222      9.3123332    
  24995000   298.485       -214.69058      1246.532       3701.0227      7.0134522    
  25000000   301.30095     -214.09775      1296.6531      3776.9181      6.1164196    
  25005000   300.44995     -209.37363      1277.0071      3754.3861      4.2181549    
  25010000   298.82322     -223.27575      1256.2142      3705.1442      9.5144493    
Loop time of 9506.42 on 64 procs for 25000000 steps with 3001 atoms

Performance: 6816.443 ns/day, 0.004 hours/ns, 2629.801 timesteps/s
99.6% CPU use with 64 MPI tasks x 1 OpenMP threads

MPI task timing breakdown:
Section |  min time  |  avg time  |  max time  |%varavg| %total
---------------------------------------------------------------
Pair    | 100.58     | 112.68     | 151.02     |  69.2 |  1.19
Bond    | 50.781     | 52.516     | 54.005     |   7.4 |  0.55
Neigh   | 1467.9     | 1480.5     | 1495.2     |  18.3 | 15.57
Comm    | 7656.7     | 7690.7     | 7711.4     |  11.8 | 80.90
Output  | 13.45      | 13.458     | 13.49      |   0.2 |  0.14
Modify  | 82.284     | 85.361     | 88.4       |  11.2 |  0.90
Other   |            | 71.17      |            |       |  0.75

Nlocal:        46.8906 ave          70 max          17 min
Histogram: 1 2 4 7 11 14 7 8 6 4
Nghost:        3415.23 ave        3501 max        3343 min
Histogram: 2 7 8 15 5 7 11 5 2 2
Neighs:        275.688 ave         545 max          58 min
Histogram: 4 4 10 13 13 5 3 6 2 4
FullNghs:      551.375 ave        1084 max          99 min
Histogram: 3 5 7 13 14 5 6 4 3 4

Total # of neighbors = 35288
Ave neighs/atom = 11.758747
Ave special neighs/atom = 3.5988004
Neighbor list builds = 2500000
Dangerous builds = 2499990
Total wall time: 2:38:30
