LAMMPS (23 Jun 2022)
OMP_NUM_THREADS environment is not set. Defaulting to 1 thread. (src/src/comm.cpp:98)
  using 1 OpenMP thread(s) per MPI task
Created orthogonal box = (0 0 0) to (150 150 150)
  4 by 4 by 4 MPI processor grid
Read molecule template lig:
  1 molecules
  0 fragments
  5 atoms with max type 2
  4 bonds with max type 1
  3 angles with max type 1
  0 dihedrals with max type 0
  0 impropers with max type 0
Created 1 atoms
  using box units in orthogonal box = (0 0 0) to (150 150 150)
  create_atoms CPU = 0.000 seconds
Created 3000 atoms
  using lattice units in orthogonal box = (0 0 0) to (150 150 150)
  create_atoms CPU = 0.004 seconds
Finding 1-2 1-3 1-4 neighbors ...
  special bond factors lj:    0        1        1       
  special bond factors coul:  0        0        0       
     2 = max # of 1-2 neighbors
     2 = max # of 1-3 neighbors
     2 = max # of 1-4 neighbors
     7 = max # of special neighbors
  special bonds CPU = 0.002 seconds
3000 atoms in group ligands
Generated 0 of 6 mixed pair_coeff terms from geometric mixing rule
Neighbor list info ...
  update every 1 steps, delay 10 steps, check yes
  max neighbors/atom: 2000, page size: 100000
  master list distance cutoff = 60
  ghost atom cutoff = 60
  binsize = 30, bins = 5 5 5
  1 neighbor lists, perpetual/occasional/extra = 1 0 0
  (1) pair lj/expand, perpetual
      attributes: half, newton on
      pair build: half/bin/newton
      stencil: half/bin/3d
      bin: standard
Setting up Verlet run ...
  Unit style    : real
  Current step  : 0
  Time step     : 30
Per MPI rank memory allocation (min/avg/max) = 8.076 | 8.105 | 8.367 Mbytes
   Step          Temp          E_pair         E_mol          TotEng         Press     
         0   0              9.8623636e+13  4.0068356e-25  9.8623636e+13  8.0147754e+12
      5000   143.19199     -623.65215      626.74456      1283.5768      4.8269823    
     10000   141.66307     -794.29036      639.23632      1111.758       3.0379046    
Loop time of 3.78711 on 64 procs for 10000 steps with 3001 atoms

Performance: 6844.272 ns/day, 0.004 hours/ns, 2640.537 timesteps/s
99.6% CPU use with 64 MPI tasks x 1 OpenMP threads

MPI task timing breakdown:
Section |  min time  |  avg time  |  max time  |%varavg| %total
---------------------------------------------------------------
Pair    | 0.015896   | 0.05187    | 0.12905    |  11.0 |  1.37
Bond    | 0.011226   | 0.021023   | 0.035728   |   4.0 |  0.56
Neigh   | 0.559      | 0.56579    | 0.57463    |   0.5 | 14.94
Comm    | 2.9642     | 3.0675     | 3.1216     |   2.2 | 81.00
Output  | 0.0012567  | 0.0012643  | 0.0012716  |   0.0 |  0.03
Modify  | 0.022004   | 0.040161   | 0.068153   |   5.5 |  1.06
Other   |            | 0.03949    |            |       |  1.04

Nlocal:        46.8906 ave          84 max          19 min
Histogram: 3 11 8 11 10 3 6 5 6 1
Nghost:           3401 ave        3460 max        3333 min
Histogram: 1 2 9 11 5 8 13 5 6 4
Neighs:         333.75 ave         871 max          57 min
Histogram: 7 15 12 6 11 3 5 0 3 2

Total # of neighbors = 21360
Ave neighs/atom = 7.1176275
Ave special neighs/atom = 3.5988004
Neighbor list builds = 909
Dangerous builds = 0
1 atoms in group nps
600 atoms in group amines
Generated 0 of 6 mixed pair_coeff terms from geometric mixing rule
Neighbor list info ...
  update every 1 steps, delay 10 steps, check yes
  max neighbors/atom: 2000, page size: 100000
  master list distance cutoff = 60
  ghost atom cutoff = 60
  binsize = 30, bins = 5 5 5
  2 neighbor lists, perpetual/occasional/extra = 1 1 0
  (1) pair lj/expand, perpetual
      attributes: half, newton on
      pair build: half/bin/newton
      stencil: half/bin/3d
      bin: standard
  (2) compute coord/atom, occasional
      attributes: full, newton on
      pair build: full/bin
      stencil: full/bin/3d
      bin: standard
Setting up Verlet run ...
  Unit style    : real
  Current step  : 10000
  Time step     : 30
Per MPI rank memory allocation (min/avg/max) = 9.101 | 9.222 | 10.11 Mbytes
   Step          Temp          E_pair         E_mol          TotEng         Press     
     10000   141.66307     -794.29036      639.23632      1111.758       3.0379046    
     15000   304.5786      -994.42361      1309.6792      3038.9284      16.078331    
     20000   301.17997     -1301.4659      1285.9472      2677.7622     -0.23081034   
     25000   302.14312     -1501.2621      1305.3215      2505.9531      11.184571    
     30000   296.7474      -1623.7301      1262.1985      2292.1114     -1.4224288    
     35000   296.46606     -1849.9433      1265.5614      2066.7452      8.8292143    
     40000   297.23319     -2053.223       1254.5391      1859.3031      14.814214    
     45000   302.72214     -2194.4024      1273.1128      1785.7821      5.3557184    
     50000   299.52115     -2328.7367      1324.9136      1674.6238      3.9370135    
     55000   302.32059     -2467.0364      1330.9786      1567.423       0.25283068   
     60000   299.61413     -2548.7892      1272.0721      1402.5614     -4.4483343    
     65000   295.61339     -2706.585       1349.6829      1286.6         2.9859278    
     70000   300.25514     -2811.4768      1261.5562      1135.09       -7.712273     
     75000   290.7189      -2903.0337      1232.5166      929.21633      41.965084    
     80000   295.15145     -2945.1215      1283.7297      977.97943      3.0258855    
     85000   302.91059     -3032.3063      1263.7051      940.15554     -9.1962896    
     90000   299.42915     -3092.16        1215.6358      801.09998      1.3661241    
     95000   307.99168     -3105.1711      1271.1464      920.16935     -2.7941773    
    100000   297.22095     -3163.2443      1231.4795      726.1128      -15.868227    
    105000   298.09965     -3293.0959      1189.715       562.35441      27.914093    
    110000   303.96966     -3395.8478      1245.8829      568.26252      11.185235    
    115000   297.69459     -3386.4603      1257.0725      532.72535      1.4122692    
    120000   300.53153     -3455.5621      1236.7842      468.70432      11.846626    
    125000   293.59332     -3499.9079      1260.3265      385.85632      11.934904    
    130000   301.70639     -3534.6008      1250.0912      413.47877     -4.8470062    
    135000   300.87205     -3550.7552      1217.8602      357.63233     -24.092692    
    140000   293.10735     -3645.0374      1228.8616      204.9162      -7.3725802    
    145000   298.29474     -3727.5844      1290.5499      230.44539     -7.4911157    
    150000   296.91272     -3711.555       1243.4754      187.04167      24.193244    
    155000   294.36822     -3767.0848      1239.9864      105.26886      2.3602704    
    160000   301.84692     -3746.5163      1244.5746      197.30337     -23.487719    
    165000   295.64483     -3800.8008      1230.8412      73.823649     -0.0038572368 
    170000   301.01077     -3831.6342      1259.3992      119.53289      25.071467    
    175000   303.56243     -3906.0825      1227.0815      35.58489       23.739093    
    180000   298.52912     -3918.8073      1307.9542      58.722771      16.110371    
    185000   303.21409     -3951.9786      1227.6422     -12.865646     -8.3955501    
    190000   301.24739     -3983.2583      1245.2697     -44.104917      5.2908426    
    195000   298.28318     -4005.2074      1201.8134     -136.01758     -3.1771789    
    200000   304.17428     -4059.1359      1245.8381     -93.240551     -18.489124    
    205000   302.36593     -4073.8228      1248.9122     -121.02441      10.266231    
    210000   305.49859     -4081.8331      1206.4774     -143.45589     -17.44636     
    215000   298.60137     -4080.7146      1218.9103     -191.58244      22.009434    
    220000   298.56511     -4104.5295      1236.0739     -198.55789      6.90113      
    225000   302.50594     -4117.9578      1270.7568     -142.06276     -7.5521381    
    230000   292.58094     -4107.6152      1178.6238     -312.60682      12.161725    
    235000   298.19019     -4116.1686      1220.8737     -228.74994      10.703844    
    240000   305.56536     -4153.087       1216.6252     -203.96484     -13.329208    
    245000   295.20963     -4197.5133      1211.3307     -346.29118     -6.3978601    
    250000   298.48929     -4215.0178      1208.5556     -337.24254     -3.4655064    
    255000   302.23613     -4220.4859      1258.6305     -259.12998     -6.1533436    
    260000   293.66636     -4251.1379      1260.9501     -364.09686      16.81586     
    265000   302.14769     -4248.1024      1260.3566     -285.81111      5.1161411    
    270000   298.59076     -4256.703       1274.2875     -312.28855     -14.614665    
    275000   300.64252     -4267.0453      1281.7145     -296.85608     -36.022765    
    280000   295.70605     -4280.7629      1246.6846     -389.7475      -11.374115    
    285000   297.18372     -4303.9314      1227.7888     -418.59798     -34.510643    
    290000   298.04805     -4310.6711      1254.9027     -390.49458      0.74341264   
    295000   297.39935     -4367.8547      1257.454      -450.92775      27.54069     
    300000   297.16193     -4388.2206      1215.76       -515.11091      34.308659    
    305000   302.69764     -4394.6691      1192.9355     -494.88104     -9.9016539    
    310000   294.79619     -4388.247       1225.6313     -526.42139      14.009395    
    315000   295.23787     -4388.0833      1199.5171     -548.42218      9.1871489    
    320000   299.98889     -4403.799       1192.1699     -528.9994       19.359064    
    325000   308.14188     -4452.2298      1222.5305     -474.16212      33.377674    
    330000   297.80328     -4424.571       1221.0193     -540.46671      13.210494    
    335000   298.64745     -4467.5493      1236.8263     -560.08902      31.761531    
    340000   302.43393     -4450.3959      1241.4619     -504.43969      17.96656     
    345000   299.45538     -4487.6834      1183.9481     -625.87654      17.299178    
    350000   300.55956     -4521.5715      1270.8929     -562.94579      20.446442    
    355000   302.63724     -4507.8856      1223.8298     -577.74348      7.579279     
    360000   294.85137     -4531.3852      1250.738      -643.95937      17.300187    
    365000   301.10523     -4553.6087      1234.6652     -626.33096      13.55494     
    370000   298.72588     -4578.5178      1251.8144     -655.36812      31.984031    
    375000   302.69273     -4594.2188      1251.9047     -635.5055      -37.583881    
    380000   308.3503      -4598.027       1256.1251     -584.50092      40.110037    
    385000   304.06676     -4649.4192      1177.7432     -752.5802       21.173235    
    390000   305.02159     -4668.451       1189.3066     -751.5101      -16.532249    
    395000   303.9552      -4659.7661      1195.8549     -745.81298     -5.5170478    
    400000   300.00126     -4679.5244      1246.4762     -750.30782     -6.221178     
    405000   304.16404     -4667.1675      1197.7887     -749.41313     -7.1995832    
    410000   299.31146     -4674.3037      1228.2934     -769.43851      14.198066    
    415000   297.3883      -4696.707       1206.5574     -830.77544      2.2638179    
    420000   294.23215     -4724.1962      1200.6551     -892.39062     -15.870349    
    425000   301.62068     -4730.9625      1214.1248     -819.61582      1.0933262    
    430000   295.08474     -4724.7139      1276.7249     -809.2144       4.3974247    
    435000   294.98817     -4754.7519      1245.7605     -871.08029     -8.7277728    
    440000   298.67672     -4757.0693      1204.3967     -881.77687      5.5463338    
    445000   301.06501     -4747.987       1256.9406     -798.79355      17.27953     
    450000   301.46084     -4758.7218      1213.5241     -849.40518     -1.6489411    
    455000   300.02154     -4781.5557      1194.5505     -904.08361      2.4815217    
    460000   306.30712     -4783.7235      1276.1538     -768.43963      29.938626    
    465000   303.22155     -4801.4038      1177.8607     -912.00557     -6.8950902    
    470000   298.92097     -4759.7478      1228.4176     -858.25029     -20.545008    
    475000   303.02599     -4798.4199      1165.5838     -923.04735     -13.899604    
    480000   297.93465     -4804.5291      1247.7937     -892.47554      5.6281671    
    485000   296.68571     -4807.7069      1194.5065     -960.10918      21.949274    
    490000   295.91588     -4833.4399      1187.7304     -999.50236      13.285484    
    495000   298.79749     -4842.4482      1266.1309     -904.34157      6.2795762    
    500000   305.2734      -4844.592       1223.2275     -891.47848      30.827175    
    505000   298.17272     -4814.1012      1218.0216     -929.69092      19.57439     
    510000   299.20395     -4855.1277      1212.0601     -967.45716     -5.417819     
    515000   302.08201     -4884.4638      1178.632      -1004.4845      17.882634    
    520000   296.9364      -4904.2055      1243.934      -1004.9384     -8.3160524    
    525000   299.14843     -4888.6832      1220.4995     -993.06971      26.190862    
    530000   307.58599     -4913.3504      1218.895      -943.88917     -20.211517    
    535000   295.0213      -4935.0216      1203.7045     -1093.1097      0.17598109   
    540000   298.8194      -4925.1702      1220.676      -1032.3227      0.60428389   
    545000   294.26345     -4949.296       1206.944      -1110.9216     -3.6055057    
    550000   294.55611     -4956.862       1248.9685     -1073.846       18.399007    
    555000   295.9883      -4994.0779      1200.3842     -1146.8391      19.075727    
    560000   305.31758     -4957.2305      1214.7336     -1012.2157      26.981921    
    565000   297.15242     -4983.3087      1208.5522     -1117.4918      13.013519    
    570000   297.38525     -4971.6701      1205.1746     -1107.1487      41.906884    
    575000   296.22904     -4987.3623      1205.7448     -1132.6101      2.0115812    
    580000   293.78327     -4980.9029      1203.3097     -1150.4568      8.6254153    
    585000   295.52868     -4983.7584      1159.0174     -1181.9964      19.112675    
    590000   300.29125     -4993.4117      1195.57       -1112.5082      17.534314    
    595000   300.28734     -5010.4714      1288.7078     -1036.4651      17.59414     
    600000   299.42877     -4995.7346      1207.3291     -1110.7845     -13.647368    
    605000   295.69563     -5036.3594      1213.9517     -1178.1702      22.669998    
    610000   298.52587     -5040.79        1237.9494     -1133.2939      0.34600891   
    615000   292.15491     -5062.8699      1231.8245     -1218.4705      12.21738     
    620000   299.30303     -5039.5825      1234.8488     -1128.2372      4.359993     
    625000   299.74531     -5052.0471      1200.3589     -1171.2367     -2.8634423    
    630000   301.18423     -5070.201       1212.0986     -1164.7836     -16.165613    
    635000   305.08615     -5067.1197      1228.2397     -1110.6684     -14.784144    
    640000   303.68148     -5074.703       1214.7837     -1144.2689     -13.882084    
    645000   303.42652     -5073.5267      1216.1533     -1144.0029      39.127694    
    650000   299.49288     -5069.4873      1192.4671     -1198.826       32.790189    
    655000   313.94789     -5065.1811      1204.1241     -1053.5999      15.10323     
    660000   303.03136     -5070.8856      1190.5993     -1170.4495      15.770429    
    665000   301.87897     -5077.7009      1214.9904     -1163.179      -9.0223265    
    670000   296.46322     -5097.6691      1241.1851     -1205.3823     -34.111183    
    675000   291.63118     -5094.1204      1204.7414     -1281.4876     -27.672671    
    680000   295.44583     -5076.5726      1174.1546     -1260.4144     -10.982222    
    685000   289.47988     -5093.209       1174.6758     -1329.8796      13.225577    
    690000   293.80297     -5093.301       1211.7369     -1254.2515      32.055029    
    695000   298.49793     -5071.1569      1215.6551     -1186.205      -13.262463    
    700000   296.42436     -5111.1991      1162.6674     -1297.7776     -9.5949135    
    705000   297.50958     -5111.2938      1215.634      -1235.2011     -12.728782    
    710000   291.93151     -5108.556       1217.7689     -1280.21        10.464688    
    715000   298.56762     -5129.3968      1205.5141     -1253.9626      15.373291    
    720000   306.03547     -5126.7362      1189.042      -1200.9935     -27.739364    
    725000   297.11068     -5114.5611      1205.2593     -1252.4103     -2.2371326    
    730000   300.92285     -5137.2141      1201.7338     -1244.4988     -0.66313243   
    735000   309.68425     -5178.1397      1208.3242     -1200.4857      7.6698791    
    740000   307.66492     -5172.9123      1201.4098     -1220.2304      24.42223     
    745000   298.05401     -5136.5607      1142.3926     -1328.8409      38.812424    
    750000   290.30287     -5154.1369      1216.069      -1342.0548      6.1297438    
    755000   307.72777     -5163.7921      1271.0069     -1140.9512      14.073529    
    760000   295.86013     -5164.1836      1216.4527     -1302.0224      10.822057    
    765000   297.05629     -5177.5634      1189.9603     -1331.198       20.723701    
    770000   301.31746     -5192.1668      1161.6968     -1335.9597     -11.995144    
    775000   295.16552     -5176.0967      1233.4844     -1303.1152      0.56850688   
    780000   309.44715     -5211.6596      1172.4546     -1271.9955      4.9414901    
    785000   302.03664     -5225.3577      1189.2603     -1335.1558      22.834611    
    790000   302.01416     -5211.2931      1194.5961     -1315.9564      27.490011    
    795000   307.40374     -5175.1735      1221.1739     -1205.0631     -0.70194912   
    800000   299.49842     -5215.0838      1225.807      -1311.0332     -27.723843    
    805000   300.51612     -5201.6544      1188.5746     -1325.7354      21.426238    
    810000   302.62067     -5212.8528      1202.8122     -1303.8765      29.851639    
    815000   300.20624     -5200.3204      1207.0551     -1308.6919     -4.6332383    
    820000   306.37347     -5183.0144      1177.4746     -1265.8165      14.605376    
    825000   310.98861     -5201.0636      1220.6749     -1199.3948     -3.9456134    
    830000   299.48726     -5199.8128      1174.0346     -1347.6343     -63.761184    
    835000   303.56384     -5179.7187      1191.6883     -1273.4319      5.0451325    
    840000   304.62642     -5191.3831      1196.07       -1271.2127     -2.9136111    
    845000   298.97063     -5188.5008      1236.7259     -1278.2509     -9.8455475    
    850000   303.19991     -5205.6095      1177.0359     -1317.2296     -32.958316    
    855000   305.84798     -5200.2187      1229.4837     -1235.7107     -31.230632    
    860000   292.74114     -5187.0582      1229.7494     -1339.4916     -11.268498    
    865000   296.59803     -5190.0253      1244.8409     -1292.8773      12.994192    
    870000   302.24664     -5192.1739      1185.1817     -1304.1727      26.560578    
    875000   294.69225     -5183.3929      1235.0706     -1313.0575      21.377806    
    880000   310.74045     -5202.6276      1185.7128     -1238.1401      6.1804202    
    885000   302.72254     -5207.3961      1236.3807     -1263.9403     -1.7276855    
    890000   291.58108     -5228.0415      1206.9682     -1413.6298      23.230163    
    895000   299.09156     -5208.0583      1228.9547     -1304.4983      17.011218    
    900000   297.00049     -5207.9499      1235.8638     -1316.18        4.9291689    
    905000   305.42015     -5220.4674      1220.3564     -1268.9127      8.1855776    
    910000   299.1903      -5201.0146      1190.5278     -1334.9985      9.9029557    
    915000   298.60842     -5227.9946      1208.0575     -1349.6522      0.93900817   
    920000   303.78452     -5232.0692      1171.1033     -1344.394       2.8312026    
    925000   303.29915     -5207.3278      1204.4441     -1290.6523     -5.0513221    
    930000   294.79086     -5229.7672      1225.4616     -1368.1589      9.4050658    
    935000   301.53413     -5241.9623      1232.5309     -1312.9835      6.376663     
    940000   300.924       -5237.5049      1197.4538     -1349.0592     -11.325972    
    945000   300.68682     -5251.7666      1216.6113     -1346.2844     -11.794527    
    950000   301.42923     -5234.6685      1136.4736     -1402.6851      41.393925    
    955000   298.54073     -5252.9381      1195.5134     -1387.745       19.829678    
    960000   293.2228      -5212.5062      1193.7707     -1396.6111     -18.280021    
    965000   304.02893     -5251.5748      1238.1872     -1294.6302     -10.721766    
    970000   302.71178     -5240.6228      1224.3554     -1309.2885      9.9892807    
    975000   296.23248     -5243.3105      1215.5705     -1378.7017      23.190689    
    980000   304.28344     -5237.0415      1260.2393     -1255.7688     -2.9788608    
    985000   293.27448     -5230.9842      1199.3449     -1409.0527      6.0381337    
    990000   292.40401     -5262.1644      1197.1946     -1450.1673      7.7372381    
    995000   296.76218     -5229.5845      1195.611      -1380.1985     -31.246323    
   1000000   300.7576      -5247.3385      1217.9666     -1339.868      -28.924979    
   1005000   293.33841     -5245.5414      1154.4186     -1467.9645     -12.732567    
   1010000   301.35489     -5262.7084      1207.0139     -1360.8495     -24.004652    
   1015000   301.21416     -5257.6045      1277.2686     -1286.7493      3.7130219    
   1020000   304.90147     -5239.5276      1182.8454     -1330.1221      23.840717    
   1025000   302.61452     -5244.3288      1208.6576     -1329.562      -9.4733012    
   1030000   302.16762     -5251.5995      1223.3303     -1326.1564      1.785473     
   1035000   302.84549     -5260.7368      1168.419      -1384.1432      6.7060697    
   1040000   289.22824     -5233.7412      1216.4724     -1430.8654      46.23366     
   1045000   295.58311     -5241.9367      1184.4031     -1414.3023     -5.6952404    
   1050000   303.60833     -5260.2057      1236.5779     -1308.6314      47.294319    
   1055000   310.94377     -5272.6558      1182.5505     -1309.5123     -0.40386963   
   1060000   303.24901     -5256.6591      1139.9032     -1404.9728     -7.9946272    
   1065000   300.90104     -5298.6464      1263.1426     -1344.7172     -6.0784248    
   1070000   299.36406     -5263.2249      1180.0167     -1406.1659      35.302621    
   1075000   295.40557     -5282.2522      1227.3918     -1413.2167     -8.149361     
   1080000   291.19203     -5274.5581      1237.3139     -1433.2798      49.535155    
   1085000   309.2446      -5264.7908      1176.1762     -1323.2164      47.290927    
   1090000   296.68        -5312.842       1159.0876     -1500.7142      5.286999     
   1095000   302.13221     -5339.2536      1185.0039     -1452.4534     -16.185322    
   1100000   300.47084     -5316.1046      1192.7693     -1436.3957      19.993442    
   1105000   302.54073     -5329.3325      1163.3318     -1460.5513      2.5431085    
   1110000   296.01023     -5306.5082      1170.9933     -1488.4641      32.991219    
   1115000   303.42587     -5345.6064      1162.4386     -1469.8032      20.684712    
   1120000   308.79135     -5354.2041      1191.0654     -1401.7936      27.985236    
   1125000   293.90759     -5330.9513      1179.407      -1523.2961     -10.513857    
   1130000   297.41531     -5355.0705      1209.6445     -1485.8103      9.4954721    
   1135000   296.35641     -5348.161       1218.5761     -1479.4384      20.956577    
   1140000   295.41931     -5320.1074      1264.9046     -1413.4363      15.837681    
   1145000   299.66127     -5378.6361      1239.2394     -1459.6968     -10.916674    
   1150000   299.05406     -5330.9948      1176.0668     -1480.6579      5.2456399    
   1155000   295.825       -5331.4098      1217.0047     -1469.0107      10.12526     
   1160000   306.94738     -5377.5707      1172.0922     -1460.6229     -13.163485    
   1165000   302.42883     -5350.4409      1187.242      -1458.7502      13.433714    
   1170000   292.65921     -5359.3659      1218.339      -1523.9423      31.39309     
   1175000   293.78195     -5337.4696      1244.4604     -1465.8847      7.5982591    
   1180000   293.38872     -5358.0421      1232.2791     -1502.1549      5.7335488    
   1185000   289.40791     -5353.5584      1213.4243     -1552.1241      4.8130799    
   1190000   297.35949     -5363.7657      1178.6045     -1526.0447     -3.2810647    
   1195000   299.59509     -5363.1211      1216.8532     -1467.1598      5.7202588    
   1200000   290.56235     -5361.7298      1216.9572     -1546.4391     -30.101404    
   1205000   297.74066     -5389.8199      1219.9573     -1507.3375     -20.394333    
   1210000   299.05881     -5350.2749      1195.9934     -1479.969       0.51278152   
   1215000   300.18215     -5363.5909      1212.1655     -1467.0675     -4.3456037    
   1220000   298.18954     -5388.811       1160.3256     -1561.9463      2.0166685    
   1225000   303.59314     -5388.1797      1225.3188     -1448.0005      17.802383    
   1230000   296.50863     -5385.1088      1181.467      -1552.1341     -26.113566    
   1235000   300.63388     -5359.6365      1165.6762     -1505.5628      4.508959     
   1240000   293.93918     -5392.1381      1223.9392     -1539.6683     -13.828746    
   1245000   299.48624     -5385.0269      1223.6729     -1483.2192     -1.4825229    
   1250000   300.67218     -5406.0043      1197.7809     -1519.4834      1.3215796    
   1255000   302.67006     -5408.3757      1234.8731     -1466.8967      21.352471    
   1260000   307.39367     -5432.6365      1208.7753     -1475.0147      13.363515    
   1265000   296.21505     -5401.881       1208.1402     -1544.8585     -23.754262    
   1270000   306.11208     -5416.7822      1195.7042     -1483.6921     -20.747709    
   1275000   308.33043     -5418.1451      1211.8637     -1449.0581     -6.5158742    
   1280000   298.42002     -5416.2468      1186.4752     -1561.1714      20.53531     
   1285000   297.45134     -5435.177       1201.9872     -1573.252      -24.342656    
   1290000   300.10319     -5443.0523      1191.6524     -1567.748      -28.463336    
   1295000   294.93892     -5432.0398      1209.3734     -1585.1957      7.7159489    
   1300000   307.62779     -5456.5205      1199.7704     -1505.8101      32.110673    
   1305000   295.29278     -5455.5866      1191.7648     -1623.1868      24.060892    
   1310000   299.46111     -5455.3368      1191.3661     -1586.0606      42.682738    
   1315000   302.93255     -5435.7241      1183.6068     -1543.1641      15.120447    
   1320000   299.71383     -5419.6892      1197.0219     -1542.4973      1.4664367    
   1325000   300.61126     -5441.1886      1195.9582     -1557.0352      4.99796      
   1330000   301.0358      -5453.2626      1207.4568     -1553.8142     -6.8561546    
   1335000   310.56506     -5459.4994      1209.6107     -1472.6823      28.623418    
   1340000   300.49519     -5456.6031      1223.1302     -1546.3157     -7.6064228    
   1345000   297.39223     -5462.6157      1189.0506     -1614.1559     -3.629859     
   1350000   310.44797     -5453.4554      1180.7739     -1496.5222     -17.612192    
   1355000   307.13773     -5431.6001      1186.2663     -1498.7761      18.140806    
   1360000   296.29127     -5430.6606      1194.9148     -1586.1818      27.36027     
   1365000   295.30632     -5416.9245      1169.8129     -1606.3556      21.398657    
   1370000   299.48996     -5480.3853      1187.9877     -1614.2295      11.786651    
   1375000   307.98572     -5448.6674      1166.7719     -1527.7547     -9.9401375    
   1380000   291.97582     -5440.1109      1184.0348     -1645.1027     -1.3172762    
   1385000   292.40142     -5446.7099      1175.8462     -1656.0844     -24.63813     
   1390000   301.7836      -5455.5847      1194.8322     -1562.0737      2.9469311    
   1395000   304.1236      -5492.6063      1168.0665     -1604.9357      16.143311    
   1400000   299.52117     -5459.1445      1205.8904     -1574.807      -5.2569171    
   1405000   300.57413     -5476.218       1208.9554     -1579.3995      23.681789    
   1410000   302.52738     -5490.1352      1182.0242     -1602.7809     -13.716749    
   1415000   301.03111     -5495.8904      1217.6991     -1586.2416     -12.590286    
   1420000   302.80629     -5483.076       1202.575      -1572.6769     -8.087218     
   1425000   296.2203      -5473.6719      1175.5824     -1649.1601     -30.958688    
   1430000   308.20202     -5500.8004      1214.6501     -1530.0753     -3.4868735    
   1435000   296.1526      -5474.3695      1238.2419     -1587.8037     -32.101983    
   1440000   302.1612      -5488.2113      1195.1352     -1591.0207     -38.15806     
   1445000   308.54851     -5499.0496      1180.274      -1559.6022     -21.337841    
   1450000   297.41804     -5480.8811      1185.3736     -1635.8675      19.213034    
   1455000   308.91262     -5476.619       1175.7967     -1538.3927      13.066438    
   1460000   304.45634     -5498.6491      1186.4981     -1589.5715     -26.216891    
   1465000   298.36994     -5512.4139      1229.3522     -1614.9094     -6.1547529    
   1470000   300.42209     -5469.1279      1180.3002     -1602.3242     -23.041445    
   1475000   296.19926     -5465.5567      1159.509      -1657.3065      15.927237    
   1480000   304.41286     -5483.312       1147.8855     -1613.2358     -0.45509668   
   1485000   301.13882     -5478.5463      1164.0937     -1621.5396     -17.016271    
   1490000   301.77946     -5488.2588      1186.2238     -1603.3933     -1.1333318    
   1495000   299.78022     -5517.5231      1187.5118     -1649.2477      10.491282    
   1500000   293.28137     -5483.43        1197.1912     -1663.5907      14.089603    
   1505000   306.4046      -5481.5889      1231.0704     -1510.5168      63.222925    
   1510000   298.02109     -5482.9341      1240.9625     -1576.9388      34.460436    
   1515000   298.02477     -5496.6563      1190.7306     -1640.86        7.5786651    
   1520000   304.72727     -5485.1565      1174.9521     -1585.202       54.458069    
   1525000   301.42706     -5498.5148      1183.4727     -1619.5517     -29.414136    
   1530000   302.41129     -5485.9975      1165.2488     -1616.4569      6.2487737    
   1535000   294.68481     -5512.4063      1170.6689     -1706.5391     -41.416868    
   1540000   299.95241     -5504.6942      1187.1107     -1635.28       -36.222812    
   1545000   295.42524     -5498.2173      1159.0714     -1697.3264      34.460495    
   1550000   300.71944     -5489.7531      1181.2975     -1619.293      -14.417051    
   1555000   296.00012     -5519.2929      1160.3609     -1711.9716      19.324076    
   1560000   300.12        -5509.3511      1183.4357     -1642.1133     -21.16081     
   1565000   304.79772     -5465.3709      1180.7828     -1558.9558      0.29973087   
   1570000   296.8276      -5491.1488      1142.0416     -1694.7471      14.757327    
   1575000   297.52789     -5501.6192      1186.3749     -1654.6218      12.204598    
   1580000   304.0569      -5487.2644      1204.0282     -1564.2285     -29.314486    
   1585000   296.05809     -5492.6662      1219.1233     -1626.0641      19.0233      
   1590000   305.30942     -5530.0864      1139.3316     -1660.5467      2.684684     
   1595000   302.80337     -5490.7278      1208.0898     -1574.8401      25.018808    
   1600000   297.28617     -5503.838       1190.4068     -1654.9704      12.322372    
   1605000   304.73446     -5481.2517      1211.2493     -1544.9357     -15.457365    
   1610000   298.54703     -5495.1388      1199.1662     -1626.2367      17.116009    
   1615000   302.15223     -5498.8823      1192.4513     -1604.4557      19.037664    
   1620000   296.51636     -5496.4626      1213.9041     -1630.9817      32.947014    
   1625000   297.20329     -5462.5289      1153.887      -1650.9222      2.1061044    
   1630000   299.65472     -5518.6561      1172.082      -1666.9328      20.174882    
   1635000   302.87375     -5515.5561      1228.704      -1578.4247      9.1065673    
   1640000   293.92857     -5499.3553      1149.1406     -1721.779       34.137857    
   1645000   305.58611     -5509.2141      1201.4037     -1575.128       1.2723745    
   1650000   295.15515     -5514.0276      1175.7118     -1698.9115     -0.32458827   
   1655000   301.33698     -5489.4051      1215.6138     -1579.1064      7.6851432    
   1660000   298.74712     -5526.4919      1206.9253     -1648.0414      33.860086    
   1665000   309.11679     -5536.8049      1167.8189     -1604.7307      8.190996     
   1670000   296.35602     -5513.6981      1214.0919     -1649.4631     -40.274355    
   1675000   293.12156     -5551.3431      1177.1048     -1753.0191     -1.9403678    
   1680000   293.95839     -5523.2676      1169.713      -1724.8522      29.032058    
   1685000   290.74407     -5534.0972      1199.0003     -1735.1384     -9.0448841    
   1690000   299.03558     -5555.5967      1270.8884     -1610.6034     -24.864249    
   1695000   313.88482     -5558.7983      1188.3412     -1563.564       6.0172146    
   1700000   302.42949     -5551.0141      1179.5006     -1667.0589      13.531661    
   1705000   296.87588     -5553.4002      1153.3223     -1745.2861      12.05198     
   1710000   293.09115     -5539.8864      1213.5048     -1705.4345     -32.833718    
   1715000   301.6715      -5564.6568      1157.936      -1709.0444     -10.795901    
   1720000   306.69606     -5530.8817      1184.9014     -1603.3721      36.93452     
   1725000   291.85669     -5544.2813      1191.7193     -1742.654       4.7602349    
   1730000   306.70672     -5516.8036      1154.8513     -1619.2489      30.36605     
   1735000   304.16249     -5557.8711      1242.5023     -1595.4169      19.452025    
   1740000   291.43346     -5564.6207      1240.1605     -1718.3368     -8.7831678    
   1745000   300.07795     -5556.3044      1196.8709     -1676.0074      8.8210536    
   1750000   302.07337     -5543.2465      1209.8449     -1632.1315      35.070397    
   1755000   299.82122     -5543.9265      1158.011      -1704.7852      9.8057407    
   1760000   300.25955     -5546.0054      1214.738      -1646.2174     -10.287901    
   1765000   295.04491     -5581.0389      1232.6872     -1709.9332     -3.5051063    
   1770000   299.22193     -5591.0814      1178.5386     -1736.7716      3.9337948    
   1775000   298.14746     -5568.2223      1188.2231     -1713.8364     -2.123098     
   1780000   299.73028     -5622.6361      1247.9585     -1694.3605     -0.55564047   
   1785000   303.2524      -5584.7797      1185.0246     -1687.9417     -10.042169    
   1790000   297.5872      -5584.9459      1180.964      -1742.8291      0.085530756  
   1795000   293.18723     -5566.2373      1195.6966     -1748.7344      19.877305    
   1800000   302.81808     -5603.4805      1220.5325     -1675.0186     -19.276208    
   1805000   305.33524     -5602.7357      1175.6138     -1696.6828     -10.347845    
   1810000   302.06976     -5603.5339      1224.6427     -1677.6535      27.405975    
   1815000   299.76105     -5597.5203      1162.4418     -1754.4864     -10.85816     
   1820000   299.25663     -5630.0983      1224.0162     -1730.0006     -4.8746399    
   1825000   295.3897      -5594.8612      1205.5514     -1747.8081     -14.320017    
   1830000   306.13908     -5590.1161      1233.3322     -1619.1566      10.854125    
   1835000   301.23082     -5584.245       1153.4289     -1737.0806      22.599063    
   1840000   294.26101     -5591.8308      1152.2572     -1808.1651      34.661128    
   1845000   305.39474     -5604.6365      1167.5091     -1706.1562     -6.6870427    
   1850000   303.2996      -5586.3335      1141.7157     -1732.3823      32.900126    
   1855000   303.86884     -5555.3671      1199.3811     -1638.6602      14.815509    
   1860000   305.32259     -5574.8451      1177.6656     -1666.8535      38.026046    
   1865000   300.97237     -5586.1622      1201.523      -1693.2148      5.7576413    
   1870000   292.57031     -5614.2223      1214.7649     -1783.1679      21.687966    
   1875000   301.43084     -5601.4275      1172.2128     -1733.6905     -16.429931    
   1880000   306.81861     -5576.9367      1214.5964     -1618.6363     -13.376506    
   1885000   295.47301     -5567.43        1235.9469     -1689.2364      15.731691    
   1890000   303.01503     -5594.5295      1172.747      -1712.0919      22.538928    
   1895000   297.35564     -5608.5687      1208.3744     -1741.1123      2.0376943    
   1900000   301.25039     -5590.69        1206.1793     -1690.6001      10.174646    
   1905000   299.44255     -5609.3823      1179.974      -1751.6642      3.5208238    
   1910000   298.24903     -5597.4389      1222.5037     -1707.8641      13.469319    
   1915000   301.81926     -5602.1244      1173.9052     -1729.2215      27.629688    
   1920000   302.70991     -5585.5073      1206.7775     -1671.7675      11.412197    
   1925000   298.29633     -5593.1402      1158.6205     -1767.0256      28.70796     
   1930000   290.02446     -5561.9329      1178.416      -1789.9934      6.9547415    
   1935000   304.22821     -5566.0055      1202.3939     -1643.0721     -7.660647     
   1940000   297.34265     -5597.5286      1165.7664     -1772.7963     -17.190789    
   1945000   300.93038     -5588.5463      1165.939      -1731.5584     -21.066891    
   1950000   292.17603     -5581.9443      1195.7266     -1773.4539      10.88316     
   1955000   301.46742     -5586.6106      1152.8966     -1737.8627     -24.232482    
   1960000   296.88013     -5605.5343      1184.0626     -1766.6418     -3.5027931    
   1965000   291.64914     -5636.6718      1193.5405     -1835.0791     -15.942797    
   1970000   292.17863     -5627.3274      1205.3899     -1809.1504      22.965456    
   1975000   296.53491     -5593.6722      1176.8211     -1765.1084     -10.851275    
   1980000   300.63006     -5602.1841      1176.4249     -1737.3958      28.51331     
   1985000   301.08977     -5607.1466      1237.9311     -1676.7413     -22.833255    
   1990000   304.20897     -5590.8123      1194.8549     -1675.5899      6.0710099    
   1995000   300.33347     -5587.5299      1196.4092     -1705.4096      6.0828491    
   2000000   307.23924     -5591.7014      1211.2744     -1632.9616     -24.724784    
   2005000   301.46838     -5596.1098      1172.3864     -1727.8635      13.04936     
   2010000   299.79962     -5586.973       1195.0601     -1710.9757     -32.777062    
   2015000   306.83414     -5584.7705      1219.7835     -1621.1441      16.582856    
   2020000   293.61653     -5604.4771      1177.2631     -1801.5688     -13.587883    
   2025000   307.03643     -5628.7533      1177.9926     -1705.1089      17.89777     
   2030000   305.49946     -5619.1722      1232.9003     -1654.3644     -4.1881183    
   2035000   306.55953     -5620.3218      1194.7071     -1684.2275      32.44513     
   2040000   294.59339     -5589.7066      1196.8497     -1758.4761     -12.556722    
   2045000   305.55346     -5565.875       1193.0475     -1640.437       27.718666    
   2050000   300.40285     -5619.9464      1232.3838     -1701.231      -25.761361    
   2055000   299.88492     -5622.2998      1141.3704     -1799.2295      17.899955    
   2060000   302.41098     -5589.8148      1204.9323     -1680.5934      6.8256376    
   2065000   301.66034     -5611.798       1144.6391     -1769.5823      0.078253498  
   2070000   303.08912     -5597.4718      1169.0119     -1718.1065     -8.3452605    
   2075000   298.95284     -5603.4656      1209.8342     -1720.2665      26.91596     
   2080000   303.09762     -5590.584       1167.1068     -1713.048       21.756625    
   2085000   299.35977     -5581.2224      1245.2104     -1659.0082      9.7909847    
   2090000   301.55202     -5603.2527      1236.3029     -1670.342      -13.316683    
   2095000   291.96228     -5610.6489      1203.5883     -1796.2084     -7.2750429    
   2100000   301.87242     -5614.586       1170.2411     -1744.8718      36.77637     
   2105000   293.22377     -5630.1323      1195.1115     -1812.8877     -27.48323     
   2110000   301.06374     -5594.3556      1195.409      -1706.7052      9.7846282    
   2115000   294.97833     -5609.9795      1169.2407     -1802.9156      3.8332067    
   2120000   298.85292     -5627.4484      1205.6351     -1749.3419      11.09923     
   2125000   299.41819     -5633.6371      1170.9946     -1785.1162      4.9647077    
   2130000   295.57327     -5627.3041      1134.5567     -1849.6041     -29.869349    
   2135000   304.10138     -5618.6601      1167.6691     -1731.5856      33.681372    
   2140000   295.54335     -5599.4669      1154.4724     -1802.1188      24.774126    
   2145000   301.42989     -5580.784       1210.154      -1675.1143      9.5879937    
   2150000   293.71436     -5609.6597      1165.7541     -1817.3855     -9.7460098    
   2155000   301.70417     -5652.8464      1192.3305     -1762.5475      21.894606    
   2160000   304.29514     -5605.3543      1202.1155     -1682.1009     -19.802631    
   2165000   295.18948     -5631.5148      1154.4359     -1837.3675      3.6685635    
   2170000   289.79191     -5610.9342      1218.0164     -1801.4739      17.169796    
   2175000   297.65804     -5614.067       1168.8548     -1783.426       13.863595    
   2180000   308.51908     -5601.5517      1157.6932     -1684.9482      7.925545     
   2185000   297.70724     -5634.0001      1149.2529     -1822.5209      2.8693342    
   2190000   302.41325     -5586.9664      1187.9772     -1694.6799     -21.943118    
   2195000   298.78982     -5598.7571      1198.3887     -1728.4613      0.044975776  
   2200000   298.28934     -5609.6309      1230.7114     -1711.488       5.2937053    
   2205000   303.95274     -5627.5046      1163.3129     -1746.1156      1.3715196    
   2210000   300.11359     -5603.0189      1174.6031     -1744.671       1.453657     
   2215000   297.00404     -5600.8937      1208.2936     -1736.6623      7.445152     
   2220000   300.91676     -5606.1336      1195.8121     -1719.3944     -6.2699099    
   2225000   295.35175     -5607.6045      1204.1505     -1762.2916     -29.954957    
   2230000   290.85951     -5607.0842      1184.7718     -1821.3216     -25.707158    
   2235000   292.50342     -5589.0993      1189.1516     -1784.2563      27.895012    
   2240000   308.46169     -5628.3762      1176.5449     -1693.4341     -23.116781    
   2245000   303.6413      -5598.3703      1183.5488     -1699.5303     -8.9964403    
   2250000   301.64887     -5594.401       1159.4187     -1737.5084     -17.782903    
   2255000   299.68484     -5674.6795      1180.0502     -1814.7185     -21.647586    
   2260000   301.67826     -5628.9742      1170.4503     -1760.7871      42.556476    
   2265000   303.61758     -5627.749       1233.7389     -1678.9311     -12.451129    
   2270000   299.79057     -5635.5714      1202.6496     -1752.0656     -2.9192484    
   2275000   298.1205      -5645.8697      1206.1323     -1773.8156      5.4813682    
   2280000   300.07268     -5650.2671      1231.3696     -1735.5185     -5.4267596    
   2285000   296.55819     -5646.2209      1216.3579     -1777.9121      11.0624      
   2290000   292.08709     -5640.5288      1194.6547     -1833.9057     -22.152988    
   2295000   302.78914     -5652.8366      1176.1226     -1769.0432      3.9096495    
   2300000   300.7788      -5618.8652      1142.4151     -1786.7566      6.5592595    
   2305000   298.53621     -5652.3348      1165.3481     -1817.3475      11.705503    
   2310000   303.74821     -5629.7348      1223.7245     -1689.7632      16.214643    
   2315000   300.29372     -5655.4221      1128.1587     -1841.9077      4.3271542    
   2320000   301.47287     -5618.1554      1124.3269     -1797.9284      12.352848    
   2325000   297.95464     -5659.2351      1186.7345     -1808.062      -8.0516732    
   2330000   298.98886     -5651.3032      1178.3543     -1799.2619     -5.9460635    
   2335000   298.90549     -5655.6905      1166.6608     -1816.0883      15.409331    
   2340000   304.83781     -5638.1411      1191.9338     -1720.2165      12.637989    
   2345000   298.91189     -5656.0342      1196.0096     -1787.0259     -3.5053154    
   2350000   303.13098     -5622.4847      1188.4254     -1723.3317      17.019522    
   2355000   294.44041     -5620.6551      1197.8357     -1789.8066      0.31012565   
   2360000   295.61475     -5636.6232      1194.0144     -1799.0946     -11.030534    
   2365000   298.62494     -5690.6667      1176.9127     -1843.3214      11.39019     
   2370000   303.85538     -5631.8983      1181.7567     -1732.9362      11.992567    
   2375000   298.11226     -5681.028       1159.0962     -1856.0836      10.026769    
   2380000   303.93554     -5651.0974      1213.4765     -1719.6986      22.076624    
   2385000   301.67268     -5683.0146      1189.7442     -1795.5835     -3.2559996    
   2390000   296.76062     -5685.6343      1201.6907     -1830.1825     -19.077555    
   2395000   294.69183     -5673.426       1168.1372     -1870.0277     -38.655017    
   2400000   295.81025     -5680.1663      1177.598      -1857.3058     -10.343971    
   2405000   299.65257     -5678.9943      1181.9445     -1817.4277      28.56437     
   2410000   298.26592     -5704.1578      1157.9565     -1878.9791      12.553372    
   2415000   298.48282     -5685.3866      1175.6049     -1840.6198     -19.159422    
   2420000   301.78048     -5694.5902      1186.4958     -1809.4435     -9.8039451    
   2425000   297.84409     -5682.7039      1154.647      -1864.6069      14.111642    
   2430000   302.6526      -5694.9146      1202.9109     -1785.5539     -11.904487    
   2435000   290.71863     -5687.1829      1190.8192     -1896.6327      4.1845446    
   2440000   293.15296     -5707.7774      1205.6808     -1880.5967      8.6309653    
   2445000   298.21441     -5686.714       1216.8295     -1803.123       3.6717017    
   2450000   296.34627     -5690.1382      1204.61       -1835.4723      15.616586    
   2455000   298.01934     -5685.3307      1186.6728     -1833.6408     -10.504977    
   2460000   299.64061     -5719.0345      1165.6481     -1873.8712      10.172581    
   2465000   292.77167     -5707.8681      1209.0114     -1880.7664     -22.835362    
   2470000   302.13313     -5668.2358      1209.8343     -1756.597      -17.510344    
   2475000   301.81648     -5646.3441      1209.9769     -1737.3944     -0.06079151   
   2480000   298.6365      -5679.1384      1168.5737     -1840.0287      34.137578    
   2485000   299.36083     -5700.3168      1185.614      -1837.6895     -28.348118    
   2490000   302.12951     -5679.765       1183.3062     -1794.6868      14.235432    
   2495000   304.24264     -5678.4466      1223.5579     -1734.2202     -35.750315    
   2500000   296.44315     -5668.0971      1097.643      -1919.5319     -6.5362834    
   2505000   294.88074     -5674.5933      1219.3133     -1818.3296     -5.4378215    
   2510000   301.87592     -5697.2378      1165.0807     -1832.6528     -5.0972342    
   2515000   307.83065     -5709.1834      1177.5056     -1778.9237     -8.6353574    
   2520000   303.58824     -5681.0804      1201.8239     -1764.4399     -13.574133    
   2525000   295.05432     -5693.9936      1186.3904     -1869.1006      12.766568    
   2530000   297.32409     -5706.4808      1202.9099     -1844.7711     -18.462219    
   2535000   297.8063      -5694.2064      1237.2623     -1793.8321      20.975007    
   2540000   298.93495     -5662.048       1165.6052     -1823.2378      29.491681    
   2545000   296.6578      -5671.5699      1163.4548     -1855.2734      24.863101    
   2550000   298.39014     -5673.833       1231.2282     -1774.2718     -15.485197    
   2555000   297.92905     -5675.7933      1188.1        -1823.4836      14.33068     
   2560000   300.96008     -5674.8216      1195.9493     -1787.5577      1.4378567    
   2565000   303.65278     -5696.235       1202.4495     -1778.3917     -12.667289    
   2570000   303.75564     -5695.4423      1163.8395     -1815.2892      35.762537    
   2575000   301.83184     -5700.0715      1221.2749     -1779.6865      7.6355233    
   2580000   295.48686     -5708.7649      1200.19       -1866.2043     -35.202315    
   2585000   300.11511     -5691.2448      1178.0812     -1829.4052      11.882641    
   2590000   302.7192      -5700.6699      1211.1609     -1782.4637      0.048774968  
   2595000   292.81851     -5697.9371      1203.2862     -1876.1418      1.3708226    
   2600000   295.15642     -5717.5715      1163.0263     -1915.1295     -11.090502    
   2605000   288.36189     -5686.0102      1158.0709     -1949.2833      16.650993    
   2610000   299.0729      -5687.748       1170.8706     -1842.439       30.682983    
   2615000   299.34705     -5668.2818      1222.7878     -1768.6039     -23.395248    
   2620000   301.58738     -5706.2875      1185.8619     -1823.5015     -14.003035    
   2625000   297.4074      -5689.9132      1213.8277     -1816.5406      3.5869908    
   2630000   294.9891      -5663.4712      1220.2076     -1805.3442      3.062121     
   2635000   299.39546     -5702.0737      1196.1174     -1828.6333      4.2021911    
   2640000   299.51153     -5684.1508      1206.9068     -1798.8831     -25.425821    
   2645000   292.6214      -5720.8444      1199.9901     -1904.1078      8.6176191    
   2650000   306.51326     -5691.3012      1129.6988     -1820.6289     -3.6588212    
   2655000   299.15344     -5719.2522      1174.0251     -1870.0683     -17.076947    
   2660000   307.87117     -5708.4466      1143.8157     -1811.5145      18.431769    
   2665000   303.4843      -5700.147       1204.5387     -1781.7211     -6.1855263    
   2670000   300.28286     -5668.1061      1174.6597     -1808.1879     -3.9905694    
   2675000   305.23835     -5698.4022      1163.1934     -1805.6362     -3.5920923    
   2680000   295.72592     -5682.2895      1218.0976     -1819.6835     -31.535029    
   2685000   298.11885     -5713.1654      1219.5588     -1827.6996      20.481095    
   2690000   300.35345     -5696.209       1202.1126     -1808.2066     -0.18450069   
   2695000   302.26169     -5678.6155      1174.0433     -1801.6182      59.872392    
   2700000   302.19918     -5711.3839      1159.5667     -1849.4222     -13.557937    
   2705000   298.9174      -5688.8261      1171.5874     -1844.1907      19.905882    
   2710000   300.46188     -5723.7327      1107.4015     -1929.4719      12.272502    
   2715000   307.35573     -5703.8131      1175.9963     -1779.3098      15.724263    
   2720000   299.48374     -5711.8405      1178.1175     -1855.6105     -9.9477781    
   2725000   293.3937      -5711.7577      1219.0131     -1869.092      -11.531373    
   2730000   298.50846     -5716.5095      1218.1328     -1828.9857      4.8087896    
   2735000   296.62061     -5687.0132      1233.8089     -1800.6952     -48.611678    
   2740000   299.47498     -5697.9968      1161.2559     -1858.7068      10.535331    
   2745000   301.91125     -5703.8042      1205.7504     -1798.2334      16.74027     
   2750000   302.89851     -5688.7818      1152.3337     -1827.7993      3.5411697    
   2755000   299.77809     -5677.3011      1192.6166     -1803.9399      30.34168     
   2760000   302.55356     -5692.3537      1153.7007     -1833.089      -8.046625     
   2765000   297.47013     -5695.2805      1163.3248     -1871.8498      38.200631    
   2770000   306.19063     -5681.4387      1194.1642     -1749.1862      23.460485    
   2775000   305.60079     -5695.335       1170.8658     -1791.6556     -14.467414    
   2780000   304.41179     -5709.3572      1176.9874     -1810.1887      29.353019    
   2785000   293.04395     -5678.8426      1214.7296     -1843.588       1.2219888    
   2790000   294.21062     -5635.7778      1202.7385     -1802.0813      37.069863    
   2795000   298.84832     -5676.2567      1123.507      -1880.3195     -6.9844459    
   2800000   303.4996      -5686.2832      1189.2658     -1782.9934     -20.618802    
   2805000   305.69004     -5676.8755      1210.0827     -1733.1809      4.2055053    
   2810000   300.81454     -5711.3043      1167.2663     -1854.025       5.8139989    
   2815000   299.93052     -5705.749       1174.2259     -1849.4153     -18.030573    
   2820000   300.27529     -5677.5315      1175.5481     -1816.7925     -4.8719755    
   2825000   290.70957     -5706.7211      1183.1113     -1923.9598     -16.427868    
   2830000   297.141       -5696.8452      1218.1825     -1821.5001     -26.087585    
   2835000   298.77142     -5694.1722      1187.1662     -1835.2635      16.62961     
   2840000   292.06222     -5706.825       1217.0985     -1877.9804     -22.001283    
   2845000   297.30709     -5712.4192      1175.459      -1878.3123     -0.45668676   
   2850000   305.02737     -5700.6829      1155.5772     -1817.4198     -9.6959108    
   2855000   297.92159     -5681.9754      1149.1403     -1868.6921      10.026566    
   2860000   299.72848     -5710.9625      1231.4676     -1799.1939     -17.695593    
   2865000   303.51239     -5693.8615      1211.5307     -1768.1925      6.8773706    
   2870000   292.69956     -5716.4547      1193.8714     -1905.1379      24.648093    
   2875000   300.18842     -5702.5588      1219.5943     -1798.5505     -16.210437    
   2880000   304.3819      -5712.4072      1237.7032     -1752.7901     -9.3363151    
   2885000   308.71995     -5695.1027      1222.0988     -1712.2974      17.943731    
   2890000   301.02131     -5700.5895      1135.5826     -1873.1449     -9.5118171    
   2895000   301.55716     -5712.2346      1125.1347     -1890.446       48.027314    
   2900000   290.44009     -5708.0307      1258.7557     -1852.0348     -34.491215    
   2905000   306.35227     -5684.4055      1199.1378     -1745.7339     -1.0656706    
   2910000   300.74888     -5694.1069      1147.0223     -1857.6588      32.963966    
   2915000   305.53414     -5690.4819      1203.5829     -1754.6812     -0.47086978   
   2920000   300.3139      -5690.6382      1173.3017     -1831.8004      19.419343    
   2925000   294.98584     -5738.8977      1179.5274     -1921.4801      4.9177927    
   2930000   300.92166     -5720.9135      1155.5089     -1874.4337      7.8972006    
   2935000   294.00555     -5726.6759      1182.9731     -1914.5787      7.1443855    
   2940000   293.08377     -5686.4926      1213.885      -1851.7265     -25.156415    
   2945000   300.60922     -5718.0064      1200.6901     -1829.1393     -41.505271    
   2950000   297.65068     -5706.115       1187.2        -1857.1945     -18.55241     
   2955000   301.06656     -5716.2625      1145.7032     -1878.2926      19.237171    
   2960000   309.15782     -5715.1477      1130.3013     -1820.2242      17.037601    
   2965000   301.90449     -5721.9419      1146.933      -1875.249      -7.0848429    
   2970000   289.79315     -5700.3407      1181.334      -1927.5517     -30.474191    
   2975000   301.55501     -5746.668       1170.197      -1879.8364     -27.845929    
   2980000   299.677       -5715.3159      1212.3433     -1823.1319     -21.26376     
   2985000   298.36123     -5712.7712      1178.8478     -1865.8489      20.649601    
   2990000   296.26867     -5697.4597      1208.6765     -1839.4214     -30.866239    
   2995000   301.21761     -5702.8698      1203.3919     -1805.8604      13.845744    
   3000000   299.03647     -5721.5198      1174.1413     -1873.2658     -7.730901     
   3005000   301.14976     -5708.3295      1192.6102     -1822.7086      14.541373    
   3010000   295.19335     -5732.6701      1260.8911     -1832.0331      12.675518    
   3015000   288.72597     -5718.7386      1164.1724     -1972.6543     -15.85445     
   3020000   308.60445     -5701.6997      1193.9745     -1748.0515      11.997563    
   3025000   298.43349     -5709.4358      1205.869      -1834.8462     -27.953688    
   3030000   307.23909     -5729.0921      1175.1142     -1806.5138      1.1960337    
   3035000   295.94605     -5733.4476      1156.7255     -1930.2452     -21.300871    
   3040000   294.0788      -5695.4362      1222.643      -1843.0141     -16.619213    
   3045000   305.16173     -5697.9082      1194.5535     -1774.4673     -16.537209    
   3050000   308.90083     -5723.0557      1135.316      -1825.4156     -9.2503028    
   3055000   298.61028     -5719.7947      1146.5423     -1902.9508      7.8369064    
   3060000   305.02836     -5711.6386      1198.3142     -1785.6296      20.352137    
   3065000   304.77263     -5732.4126      1183.6967     -1823.308       11.007447    
   3070000   299.36027     -5734.5094      1162.8467     -1894.6544      15.093827    
   3075000   301.12037     -5733.2171      1184.9559     -1855.5133      14.645654    
   3080000   300.71655     -5771.2778      1188.2254     -1893.9156     -4.3372961    
   3085000   299.60141     -5726.3509      1183.2473     -1863.9389      6.629105     
   3090000   303.63215     -5728.3233      1184.3666     -1828.7473     -13.357962    
   3095000   305.44085     -5735.3304      1172.5661     -1831.3809     -20.528742    
   3100000   297.85497     -5732.14        1167.8611     -1900.7317     -13.743205    
   3105000   301.77451     -5738.2132      1199.9236     -1839.6922      27.336289    
   3110000   300.70518     -5721.5632      1183.4258     -1849.1023     -31.072449    
   3115000   288.96714     -5750.6434      1217.8703     -1948.7046      7.9049251    
   3120000   304.16694     -5750.1537      1159.6758     -1870.4863     -30.464069    
   3125000   303.34193     -5723.8556      1209.8852     -1801.3563      32.606616    
   3130000   298.41571     -5703.6737      1210.5373     -1824.5748      40.728144    
   3135000   307.48331     -5722.2687      1184.1014     -1788.5192     -13.495071    
   3140000   298.3987      -5738.7921      1121.8395     -1948.5431      1.4798068    
   3145000   296.99425     -5750.3104      1200.8109     -1893.6492      23.348618    
   3150000   297.04341     -5736.8824      1198.1313     -1882.4611     -14.777666    
   3155000   301.32866     -5703.8118      1207.6424     -1801.5589      31.972307    
   3160000   295.92916     -5725.5633      1213.8137     -1865.4238     -11.482807    
   3165000   302.28746     -5728.5616      1157.4065     -1867.9707     -29.160654    
   3170000   299.12973     -5714.2443      1191.9203     -1847.3773      11.882544    
   3175000   298.10102     -5735.9436      1208.1396     -1862.0565      1.0213646    
   3180000   297.46499     -5700.7228      1179.3421     -1861.3208     -15.164339    
   3185000   292.85827     -5737.8059      1160.6303     -1958.311      -35.990125    
   3190000   305.71166     -5749.0859      1146.1339     -1869.1468      2.6317074    
   3195000   298.23464     -5738.1913      1184.2042     -1887.0447      49.046639    
   3200000   298.8276      -5732.8053      1206.8067     -1853.7537      3.4295674    
   3205000   297.07099     -5731.2895      1132.6919     -1942.061      -15.0915      
   3210000   291.71692     -5695.7638      1170.4952     -1916.6104     -16.423071    
   3215000   307.09031     -5730.4603      1152.1627     -1832.164      -16.210781    
   3220000   311.59482     -5745.6493      1201.1412     -1758.0932      39.865979    
   3225000   297.46752     -5699.8753      1195.227      -1844.5658      15.749609    
   3230000   304.37738     -5704.8812      1191.8324     -1791.1753      14.277315    
   3235000   293.17091     -5733.9693      1174.344      -1937.9649     -9.110852     
   3240000   284.04928     -5711.0552      1159.5995     -2011.3648     -31.908562    
   3245000   300.42546     -5731.8231      1164.0928     -1881.1967      12.929415    
   3250000   298.86056     -5732.8291      1192.5786     -1867.7108      8.3020174    
   3255000   300.79392     -5719.078       1130.4198     -1898.8295     -27.014742    
   3260000   297.12986     -5729.6456      1150.7212     -1921.8613      1.3440594    
   3265000   300.73976     -5769.899       1175.173      -1905.3817      17.194749    
   3270000   303.36011     -5742.0674      1144.8289     -1884.4618      38.168091    
   3275000   303.51438     -5741.6189      1192.5265     -1834.9363     -18.922522    
   3280000   301.07575     -5780.2268      1222.4087     -1865.4692      26.362498    
   3285000   294.95706     -5759.0503      1181.2694     -1940.1481      27.841555    
   3290000   303.54686     -5724.5221      1146.4936     -1863.5819      17.528572    
   3295000   293.30253     -5719.9553      1191.1047     -1906.0133     -18.43304     
   3300000   295.3307      -5746.7074      1170.9648     -1934.7683     -28.498953    
   3305000   296.58945     -5757.7823      1207.8956     -1897.6562      10.873342    
   3310000   294.4862      -5765.5542      1180.1123     -1952.0197     -4.6173414    
   3315000   300.20907     -5751.3044      1130.7979     -1935.9079     -4.9742241    
   3320000   298.00531     -5740.5768      1133.1017     -1942.5835      18.088389    
   3325000   299.10948     -5749.5998      1188.7966     -1886.0377     -9.3613535    
   3330000   305.51819     -5735.0098      1183.5055     -1819.4292      48.236505    
   3335000   299.44033     -5734.9007      1174.488      -1882.6884     -5.5911241    
   3340000   296.61824     -5729.5514      1192.3354     -1884.7281      4.4337705    
   3345000   301.23089     -5765.4949      1168.4655     -1903.2932      9.5837244    
   3350000   301.51845     -5781.4673      1211.9084     -1873.2512      8.0416026    
   3355000   298.65728     -5768.3987      1206.5598     -1891.1171     -4.6994641    
   3360000   307.08317     -5753.7957      1202.1278     -1805.5982     -8.8139988    
   3365000   303.54773     -5770.7006      1198.7974     -1857.4488      13.015134    
   3370000   303.53492     -5744.6164      1150.501      -1879.7756      37.94195     
   3375000   303.79276     -5766.4614      1157.5228     -1892.2929      20.368214    
   3380000   294.99975     -5781.2276      1229.0559     -1914.1571      14.796644    
   3385000   297.95004     -5779.2696      1161.1239     -1953.7482      19.673506    
   3390000   298.86068     -5784.7196      1164.3495     -1947.8294      8.1424303    
   3395000   301.81773     -5770.146       1206.0695     -1865.0925     -47.227343    
   3400000   296.79214     -5755.5312      1162.2504     -1939.2379      12.912824    
   3405000   310.88162     -5753.3333      1149.7631     -1823.5331     -9.8360743    
   3410000   300.87985     -5755.8909      1176.8418     -1888.452      -15.252471    
   3415000   304.97462     -5751.7461      1188.7009     -1835.831       17.608404    
   3420000   299.83712     -5792.9871      1195.2577     -1916.4569      8.1555443    
   3425000   302.64841     -5758.6651      1210.5601     -1841.6928     -0.39389412   
   3430000   295.7145      -5773.8771      1208.1602     -1921.3106      29.873223    
   3435000   297.68904     -5735.721       1159.8399     -1913.8178     -32.510458    
   3440000   309.66161     -5752.9284      1152.9553     -1830.8457      13.452652    
   3445000   297.0757      -5764.0884      1171.0001     -1936.5096      29.813839    
   3450000   304.39621     -5756.8696      1192.8001     -1842.0276      2.1369062    
   3455000   305.00569     -5752.894       1180.5422     -1844.8597      4.2082798    
   3460000   304.7195      -5785.5795      1176.3072     -1884.3395     -0.79593372   
   3465000   300.31582     -5749.6532      1163.0773     -1901.0226      6.2537712    
   3470000   302.28053     -5763.1645      1140.016      -1920.026      -6.1999655    
   3475000   303.00986     -5743.3938      1214.0866     -1819.6627     -19.093741    
   3480000   304.07466     -5738.3382      1182.7418     -1836.43       -19.104029    
   3485000   293.66162     -5763.2497      1220.6922     -1916.509      -14.657215    
   3490000   301.10354     -5758.0813      1219.2319     -1846.2521     -1.1248904    
   3495000   291.42077     -5762.0561      1217.7524     -1938.2938     -13.504879    
   3500000   308.90361     -5747.6618      1168.6408     -1816.672      -15.033865    
   3505000   297.29446     -5765.6627      1179.7897     -1927.3381     -18.657273    
   3510000   299.60285     -5776.6015      1170.1192     -1927.3047      12.99673     
   3515000   301.54597     -5777.0669      1214.0927     -1866.4205     -12.472434    
   3520000   300.25923     -5756.6785      1181.9598     -1889.6715     -12.609007    
   3525000   299.36811     -5751.5368      1158.2364     -1916.222       31.608461    
   3530000   301.15011     -5766.6768      1188.1481     -1885.5149     -5.9289425    
   3535000   304.63397     -5777.0711      1233.6332     -1819.2699      41.926727    
   3540000   301.57387     -5747.0597      1184.4126     -1865.8438      21.388308    
   3545000   306.48073     -5771.5402      1186.9117     -1843.946       14.581339    
   3550000   294.99741     -5774.2535      1184.3079     -1951.9519      4.8474939    
   3555000   296.6311      -5735.5589      1196.7714     -1886.1846     -35.124761    
   3560000   296.63779     -5769.7559      1138.1238     -1978.9694      7.2562404    
   3565000   307.55718     -5746.8953      1222.1093     -1774.4774     -10.100482    
   3570000   296.98829     -5769.3044      1226.0723     -1887.435      -4.7108655    
   3575000   300.47191     -5770.2735      1180.5408     -1902.7837     -15.907376    
   3580000   297.9919      -5767.8013      1202.2508     -1900.7787      1.4512495    
   3585000   294.92664     -5778.2368      1208.0226     -1932.8533      36.363203    
   3590000   298.23552     -5777.0389      1213.2324     -1896.8562     -13.65849     
   3595000   297.13604     -5787.6414      1167.9381     -1962.585       30.995447    
   3600000   295.89067     -5787.0888      1175.1007     -1966.0065      17.912451    
   3605000   300.71235     -5752.0757      1201.4905     -1861.486      -1.852743     
   3610000   297.58731     -5780.6578      1182.0816     -1937.4224     -7.1410933    
   3615000   296.67345     -5810.5512      1168.7871     -1988.7825      2.0070763    
   3620000   300.36643     -5768.9312      1238.8683     -1844.0571     -5.8540675    
   3625000   306.10632     -5789.7371      1179.4452     -1872.9575      14.025158    
   3630000   293.23789     -5765.0029      1234.3434     -1908.4001      0.39043902   
   3635000   306.39765     -5804.6167      1186.5788     -1878.0984     -9.8763726    
   3640000   305.14406     -5809.9593      1225.2399     -1855.99        8.0801744    
   3645000   301.16557     -5800.0874      1152.7185     -1954.2168     -28.372361    
   3650000   308.43279     -5797.3236      1178.9718     -1860.2131      28.833893    
   3655000   307.01911     -5781.1369      1148.7443     -1886.8957     -9.8098657    
   3660000   298.43413     -5791.8202      1200.1582     -1922.9357      40.816016    
   3665000   302.96299     -5781.7531      1170.8326     -1901.6952     -11.63192     
   3670000   298.7021      -5782.6791      1201.5671     -1909.9893      5.455231     
   3675000   312.54683     -5787.9225      1190.1219     -1802.8724     -30.052851    
   3680000   298.05603     -5806.9776      1215.9366     -1925.6957     -28.467226    
   3685000   300.48133     -5808.1426      1233.5242     -1887.585      -4.2075595    
   3690000   306.50134     -5775.4865      1159.5705     -1875.0491      2.3061566    
   3695000   296.17592     -5794.607       1176.9913     -1969.0833      2.8404271    
   3700000   303.74365     -5763.5678      1187.48       -1859.8815     -6.3005047    
   3705000   303.52766     -5785.1532      1174.541      -1896.3372      24.184811    
   3710000   308.24018     -5808.0666      1155.615      -1896.0353      10.393517    
   3715000   300.98293     -5795.7976      1170.1792     -1934.0995     -24.245217    
   3720000   302.29946     -5795.6839      1180.1294     -1912.2627     -0.71168155   
   3725000   296.56178     -5788.8197      1180.0641     -1956.7725     -1.1894219    
   3730000   294.08613     -5799.1244      1200.9215     -1968.3582      7.4149758    
   3735000   297.52931     -5787.1609      1195.4129     -1931.1129      4.4335765    
   3740000   297.51706     -5779.2677      1143.925      -1974.8171     -7.9113319    
   3745000   300.11868     -5750.6998      1172.8531     -1894.0563      7.10951      
   3750000   309.43327     -5803.2376      1208.1388     -1828.0134      24.790513    
   3755000   297.51311     -5820.1984      1208.8348     -1950.8733     -6.1933173    
   3760000   296.37334     -5792.0743      1167.1422     -1974.6342      1.0981554    
   3765000   297.36132     -5811.6092      1198.8887     -1953.5877      12.024039    
   3770000   297.95077     -5788.5717      1183.0174     -1941.1504     -24.192946    
   3775000   304.44657     -5802.3715      1181.0624     -1898.817      -13.562817    
   3780000   301.32424     -5814.5424      1189.472      -1930.4995      3.3129096    
   3785000   297.48701     -5829.1476      1187.721      -1981.1698     -20.155734    
   3790000   294.1913      -5856.8684      1201.7231     -2024.3601     -29.461046    
   3795000   306.33345     -5799.9732      1175.3825     -1885.2253      16.526911    
   3800000   295.77963     -5843.4799      1184.8786     -2013.6126      23.39743     
   3805000   300.3037      -5797.9265      1177.4584     -1935.0232     -7.7860234    
   3810000   300.10816     -5832.3139      1174.8397     -1973.7779     -11.234629    
   3815000   300.47385     -5814.6081      1179.611      -1948.0306      30.093642    
   3820000   295.30011     -5807.5956      1153.0421     -2013.8529     -34.212951    
   3825000   298.13366     -5799.7427      1132.0941     -2001.6092      6.6526575    
   3830000   302.07954     -5836.3524      1169.922      -1965.1052      7.5777273    
   3835000   299.65019     -5844.974       1169.2438     -1996.1292      12.265794    
   3840000   305.22931     -5822.3333      1168.7818     -1924.0597      13.234409    
   3845000   303.71461     -5829.6555      1152.7184     -1960.9904      27.24692     
   3850000   302.32746     -5831.8511      1186.2104     -1942.0986     -11.151432    
   3855000   294.7948      -5825.5775      1171.0251     -2018.3705     -13.055985    
   3860000   293.37532     -5833.2153      1185.2161     -2024.5108      7.7216887    
   3865000   303.38366     -5844.759       1163.8474     -1967.9244     -19.088926    
   3870000   293.46454     -5832.586       1159.3395     -2048.9603      25.969704    
   3875000   300.14915     -5808.6988      1187.724      -1936.912       19.813388    
   3880000   298.47026     -5824.8621      1176.0026     -1979.81        6.7717039    
   3885000   302.51376     -5853.4396      1159.2619     -1988.9696      17.687505    
   3890000   302.27325     -5845.516       1179.1938     -1963.2648     -2.9263213    
   3895000   291.06624     -5824.7245      1185.7248     -2036.1601      5.6906505    
   3900000   300.76741     -5831.7011      1145.1394     -1996.9702      31.067928    
   3905000   299.26639     -5828.0507      1196.2634     -1955.6185     -1.2829023    
   3910000   305.51057     -5806.8863      1181.0711     -1893.8083     -6.1927832    
   3915000   299.77119     -5786.4584      1187.537      -1918.2385      27.29004     
   3920000   308.5298      -5820.6951      1155.8456     -1905.8433      20.150628    
   3925000   303.675       -5818.339       1146.6189     -1956.1276      16.178607    
   3930000   303.30109     -5822.7561      1176.2222     -1934.2851     -4.2633446    
   3935000   293.28737     -5875.2485      1174.5432     -2078.0035      19.900706    
   3940000   292.9116      -5835.5563      1143.3068     -2072.908      -14.44556     
   3945000   289.94364     -5849.9355      1216.2692     -2040.8656      12.137897    
   3950000   300.51599     -5822.4564      1186.5469     -1948.5663      23.752882    
   3955000   308.92451     -5832.7581      1154.4757     -1915.7466     -14.039663    
   3960000   302.7226      -5838.4012      1154.2601     -1977.0654      2.0317638    
   3965000   302.68905     -5839.878       1207.2113     -1925.8909      24.191729    
   3970000   303.7034      -5843.9574      1181.7624     -1946.3486     -0.28670986   
   3975000   296.08825     -5842.7216      1193.956      -2001.0172      7.6344952    
   3980000   306.70922     -5851.3218      1172.2924     -1936.3036      13.605134    
   3985000   297.36401     -5892.0122      1191.7747     -2041.0806     -15.629703    
   3990000   302.82759     -5854.0753      1151.867      -1994.1937     -20.832638    
   3995000   293.31477     -5825.657       1179.108      -2023.6022     -15.149871    
   4000000   300.01969     -5859.4996      1186.137      -1990.4574      0.42754912   
   4005000   299.11628     -5845.753       1132.4766     -2038.4499      23.527984    
   4010000   304.09143     -5870.9123      1193.7381     -1957.8578      4.0065024    
   4015000   298.01152     -5857.5928      1228.1452     -1964.5004      6.3530603    
   4020000   295.06477     -5844.1888      1123.1263     -2082.4665     -47.489899    
   4025000   302.96816     -5830.3018      1181.1077     -1939.9225      3.2862576    
   4030000   296.52258     -5853.3524      1231.8208     -1969.8991     -19.768509    
   4035000   294.74743     -5802.6282      1212.3598     -1954.5101     -31.521297    
   4040000   304.46636     -5863.3081      1215.7932     -1924.8457     -0.13542607   
   4045000   298.19587     -5867.0785      1214.6333     -1985.8495     -14.794936    
   4050000   296.0602      -5837.8803      1175.6927     -2014.6899     -9.2984135    
   4055000   301.93548     -5856.933       1195.0469     -1961.8492     -9.2777182    
   4060000   303.4279      -5824.6093      1196.2023     -1915.0243     -15.287252    
   4065000   282.97172     -5851.1807      1202.0901     -2118.6358     -8.2385092    
   4070000   296.05772     -5883.2179      1189.068      -2046.6744      6.8801376    
   4075000   301.63537     -5848.5082      1206.2899     -1944.865       18.023164    
   4080000   300.55491     -5842.6771      1173.9455     -1981.0404     -1.5542693    
   4085000   301.63972     -5851.8002      1163.5545     -1990.8535      13.754615    
   4090000   303.12087     -5872.3107      1181.7707     -1979.9028     -4.3209078    
   4095000   300.66439     -5843.9602      1145.1549     -2010.1349      0.57872029   
   4100000   297.51871     -5813.6607      1089.3099     -2063.8104     -4.9983157    
   4105000   290.43738     -5830.7087      1209.4348     -2024.0579      19.776987    
   4110000   295.46694     -5865.7667      1195.3202     -2028.254      -8.0772665    
   4115000   297.5087      -5863.3387      1119.0814     -2083.8066     -3.7924495    
   4120000   300.33879     -5853.43        1189.4022     -1978.2692     -20.231488    
   4125000   296.67021     -5862.4711      1177.0695     -2032.4489     -0.43142889   
   4130000   295.00928     -5843.1214      1208.5246     -1996.4968     -21.681156    
   4135000   292.14147     -5852.3864      1169.2765     -2070.6552      28.992031    
   4140000   304.98023     -5848.7692      1139.5719     -1981.9329      18.779476    
   4145000   301.99678     -5853.0335      1102.4997     -2049.9486      19.990752    
   4150000   303.4271      -5841.6906      1204.5497     -1923.7653      36.381014    
   4155000   303.29935     -5865.1834      1149.1928     -2003.7574      0.16641604   
   4160000   304.28141     -5877.797       1214.219      -1942.5628     -13.176909    
   4165000   299.87918     -5857.8191      1144.6348     -2031.5357     -29.879687    
   4170000   305.55964     -5848.9034      1119.0405     -1997.4171      19.018944    
   4175000   298.59905     -5841.6441      1219.141      -1952.3019     -13.392356    
   4180000   301.96144     -5855.5332      1197.5198     -1957.7443     -25.269314    
   4185000   297.19156     -5836.1072      1151.0005     -2027.4919      16.001391    
   4190000   312.83713     -5849.0236      1182.7571     -1868.7423      16.771281    
   4195000   302.24543     -5877.0939      1194.1677     -1980.1176      41.423993    
   4200000   295.13481     -5849.8879      1198.9813     -2011.6841     -31.595771    
   4205000   303.53179     -5841.3164      1210.6383     -1916.3663      12.302541    
   4210000   305.85131     -5854.0495      1172.3996     -1946.5959      13.428802    
   4215000   289.0661      -5847.6763      1202.0296     -2060.6933      33.668147    
   4220000   302.76317     -5848.434       1153.5505     -1987.4449      15.778107    
   4225000   294.31913     -5874.2889      1167.988      -2074.3726      15.010201    
   4230000   295.58035     -5832.4055      1161.7189     -2027.48       -31.085418    
   4235000   300.97485     -5856.2207      1188.1645     -1976.6097      25.151759    
   4240000   306.50985     -5859.503       1196.3743     -1922.1858     -9.9645854    
   4245000   304.40004     -5840.9876      1181.2873     -1937.6242      10.589462    
   4250000   296.73725     -5847.8426      1189.6521     -2004.6383      11.948349    
   4255000   302.35591     -5835.6049      1189.9678     -1941.8405     -30.954659    
   4260000   298.91858     -5851.4611      1148.6237     -2029.7789     -15.058       
   4265000   294.5987      -5843.5335      1189.6507     -2019.4545      10.371115    
   4270000   302.28231     -5818.4164      1218.7426     -1896.5353      6.7429979    
   4275000   297.65307     -5864.6437      1174.8561     -2028.0458      27.814732    
   4280000   294.03557     -5849.0174      1192.796      -2026.8289      17.080428    
   4285000   304.46643     -5852.9539      1222.4781     -1907.806      -18.215167    
   4290000   298.04254     -5856.2022      1187.5924     -2003.3851      5.7944854    
   4295000   298.14014     -5846.6476      1165.1126     -2015.4376     -28.712761    
   4300000   300.26522     -5819.531       1169.5861     -1964.8442      14.892619    
   4305000   298.44892     -5861.3427      1192.5858     -1999.8983     -6.5909026    
   4310000   300.55839     -5830.503       1153.9093     -1988.8713      7.9375272    
   4315000   293.23408     -5864.1481      1173.3738     -2068.549       7.3255184    
   4320000   296.50049     -5841.0825      1164.0559     -2025.5916      20.074812    
   4325000   293.40596     -5841.35        1193.4048     -2024.1829      42.017918    
   4330000   299.66706     -5846.0294      1210.0933     -1956.1843      25.849346    
   4335000   301.5961      -5858.1795      1143.309      -2017.8684      23.631048    
   4340000   297.37992     -5811.1014      1166.7828     -1985.0194     -6.1646319    
   4345000   301.47216     -5865.8188      1205.115      -1964.8101     -18.904455    
   4350000   299.70879     -5849.1914      1220.3339     -1948.7326     -2.8874999    
   4355000   298.00827     -5839.7292      1233.942      -1940.869       15.365015    
   4360000   297.36973     -5883.8247      1132.2893     -2092.3274      25.331313    
   4365000   301.97055     -5874.9918      1167.6569     -2006.9843      18.547545    
[...]
 198945000   300.05814     -6016.4007      1198.7708     -2134.3809     -15.563062    
 198950000   292.91489     -5994.5792      1170.5221     -2204.6862      5.9879362    
 198955000   306.8043      -6005.0479      1200.8419     -2060.6299     -1.7427941    
 198960000   289.80576     -6009.3227      1203.4468     -2214.3081      38.848532    
 198965000   302.09701     -6036.6943      1170.153      -2165.0598      14.00157     
 198970000   295.96036     -5992.9305      1108.4182     -2237.9075      54.882117    
 198975000   309.40913     -5991.7672      1160.1026     -2064.7951      34.042491    
 198980000   303.2087      -6017.4595      1128.6138     -2177.4231     -11.175654    
 198985000   303.00222     -6024.8851      1242.2851     -2073.0238      22.879737    
 198990000   293.81459     -5957.7366      1176.6666     -2153.6536      2.268442     
 198995000   302.55915     -5980.6144      1212.6736     -2062.3267     -17.381243    
 199000000   301.43968     -6032.5         1210.1702     -2126.7266      54.194204    
 199005000   299.32922     -6012.6336      1197.3644     -2138.5385      31.195911    
 199010000   302.42551     -6025.8493      1154.2217     -2167.2086      46.585176    
 199015000   294.92248     -6014.1632      1192.2939     -2184.5456     -17.365144    
 199020000   304.51866     -6002.9339      1173.7691     -2106.028       1.9878604    
 199025000   295.8581      -5996.6366      1151.8778     -2199.0684      12.072142    
 199030000   294.15082     -6025.6074      1200.9277     -2194.2566      23.605928    
 199035000   295.94446     -6007.9964      1171.2974     -2190.2363     -15.843663    
 199040000   301.87183     -6006.8492      1175.1944     -2132.187      -19.891404    
 199045000   304.22676     -6009.6379      1201.9373     -2087.1741     -5.6144353    
 199050000   293.05476     -6040.8392      1158.0812     -2262.1363      9.2539483    
 199055000   299.03473     -6030.8069      1169.967      -2186.7427      7.7498839    
 199060000   302.36633     -6003.6258      1136.1929     -2163.5431     -6.3205967    
 199065000   298.65728     -6016.3342      1142.9765     -2202.6358      8.2410531    
 199070000   296.97249     -6014.5371      1161.9409     -2196.9405     -15.861678    
 199075000   300.97016     -6027.7147      1194.1684     -2142.1417     -25.837836    
 199080000   297.29443     -6002.3726      1149.402      -2194.4358      21.872025    
 199085000   299.62096     -6010.1808      1083.3253     -2247.516       7.1057025    
 199090000   306.9331      -6025.6922      1170.6348     -2110.3296     -12.375566    
 199095000   297.79574     -6035.5838      1208.4465     -2164.1197      41.824127    
 199100000   307.18194     -5985.9612      1213.6747     -2025.3335      11.471845    
 199105000   301.25171     -6027.0963      1142.8319     -2190.342       12.646611    
 199110000   291.89714     -5992.4032      1220.6413     -2161.4921      13.519299    
 199115000   309.10599     -5995.9828      1199.089      -2032.7351      5.8505987    
 199120000   303.98955     -5995.2377      1154.1331     -2122.6992     -15.384296    
 199125000   301.319       -6014.5302      1146.3067     -2173.6993      6.4887508    
 199130000   305.8635      -5993.8901      1120.5099     -2138.2171     -5.7264201    
 199135000   293.85257     -6022.8856      1185.5349     -2209.5945     -27.915109    
 199140000   299.29519     -6033.2006      1144.2679     -2212.5064     -17.307931    
 199145000   305.63424     -6009.7396      1168.9884     -2107.6384     -25.988203    
 199150000   294.29185     -5974.6562      1182.4403     -2160.5315     -13.334271    
 199155000   302.02611     -6040.2394      1171.3491     -2168.0429      6.6779122    
 199160000   298.77946     -6008.0079      1145.5082     -2190.6853      12.698945    
 199165000   298.1886      -5990.7808      1160.8217     -2163.4284      4.1157127    
 199170000   297.71036     -5991.0049      1154.4974     -2174.2533     -31.541429    
 199175000   296.65922     -5963.4527      1162.9128     -2147.6856      31.867713    
 199180000   298.23952     -5992.9613      1195.0656     -2130.9097     -1.5828549    
 199185000   299.01924     -6022.533       1182.5292     -2166.0451     -11.515893    
 199190000   301.95495     -6010.9487      1204.54       -2106.1978     -27.557418    
 199195000   298.05159     -6029.2197      1171.3592     -2192.555       2.3144278    
 199200000   299.3545      -6003.6745      1172.3892     -2154.3286     -13.689424    
 199205000   296.15292     -6030.3188      1163.5453     -2218.4467      17.008837    
 199210000   296.08144     -5994.1418      1181.9422     -2164.5121     -9.5147402    
 199215000   299.7163      -5986.4819      1199.0719     -2107.2179     -2.679666     
 199220000   300.4948      -5995.6262      1140.8984     -2167.5741      14.910302    
 199225000   304.12621     -5968.1246      1180.9298     -2067.5674      5.8388549    
 199230000   301.65189     -6024.84        1178.4122     -2148.9268     -15.932222    
 199235000   306.19305     -6022.6334      1165.2951     -2119.2284      3.0058028    
 199240000   296.87029     -5995.7411      1205.1856     -2135.8137      6.8779197    
 199245000   296.95466     -6020.8189      1174.9794     -2190.3432     -1.8144896    
 199250000   295.78462     -5982.7214      1158.5537     -2179.1344      30.549117    
 199255000   297.24269     -5991.2925      1235.1027     -2098.1178      13.550976    
 199260000   304.05838     -6017.1576      1165.271      -2132.8657      20.694739    
 199265000   297.51127     -6027.1039      1158.0246     -2208.6055      12.308029    
 199270000   300.54406     -5999.1027      1148.3527     -2163.1557      16.160167    
 199275000   300.4606      -6002.7906      1153.3541     -2162.5885      15.808086    
 199280000   301.09973     -5989.826       1203.3662     -2093.8965     -18.639809    
 199285000   290.36854     -6024.2723      1150.4267     -2277.2453     -10.641658    
 199290000   304.4732      -6024.0411      1185.4878     -2115.8231      1.5597587    
 199295000   309.72819     -5969.1141      1129.4546     -2069.9368      3.6228539    
 199300000   302.77873     -6002.7784      1171.6841     -2123.5166      31.777754    
 199305000   302.73747     -6013.1452      1194.4449     -2111.4916     -1.5884958    
 199310000   292.15518     -6029.4008      1147.2061     -2269.6174      9.8767991    
 199315000   307.85306     -5942.654       1156.5719     -2033.1276     -1.3012338    
 199320000   295.60342     -5999.0942      1156.8621     -2198.8191     -12.628653    
 199325000   303.90486     -5999.4093      1158.3588     -2123.4026      6.3526494    
 199330000   298.3732      -6012.4672      1178.4171     -2165.8686      8.8044653    
 199335000   302.19574     -6006.9304      1152.5223     -2152.0438     -1.3759358    
 199340000   297.20565     -5989.6035      1130.0267     -2201.8361      23.40371     
 199345000   299.92506     -6011.5354      1170.0336     -2159.4429      5.2131655    
 199350000   293.69539     -6006.2695      1159.3756     -2220.5434     -20.585219    
 199355000   309.26438     -6015.3851      1219.9057     -2029.9043     -17.888547    
 199360000   305.74909     -5964.877       1216.2618     -2014.4753      11.59236     
 199365000   299.85464     -6027.5817      1171.4269     -2174.7257      17.762804    
 199370000   300.68978     -6036.9744      1190.5378     -2157.5394     -14.845765    
 199375000   290.51632     -6032.727       1190.3572     -2244.4479     -44.012051    
 199380000   298.86916     -6015.313       1177.2198     -2165.4767     -49.191674    
 199385000   295.2354      -5990.9321      1194.6868     -2156.1233      21.31126     
 199390000   298.11623     -6016.0081      1155.2557     -2194.8689     -23.11179     
 199395000   300.52894     -6008.7198      1137.5157     -2183.7451      15.231134    
 199400000   290.69902     -6068.1372      1163.4528     -2305.1288      10.18626     
 199405000   301.75299     -5979.3968      1183.2747     -2097.7171      12.237149    
 199410000   306.58138     -5988.997       1170.4064     -2077.008       20.772297    
 199415000   304.57099     -6005.2757      1141.7052     -2139.9657      16.86862     
 199420000   298.76736     -6005.8377      1199.9718     -2134.1597      4.6111623    
 199425000   307.18503     -6012.1466      1207.9722     -2057.1938     -38.329143    
 199430000   306.60476     -6010.7595      1216.9428     -2052.025       6.2966909    
 199435000   304.93573     -6005.4542      1134.8449     -2143.7428     -0.88318591   
 199440000   293.64843     -6001.3549      1178.6529     -2196.7714     -9.6497732    
 199445000   297.18952     -5995.3469      1159.8588     -2177.8916      24.591084    
 199450000   288.17152     -6002.0713      1203.8676     -2221.2501     -12.483437    
 199455000   301.23021     -5993.8209      1144.0391     -2156.0517      26.164355    
 199460000   301.39528     -5996.3537      1197.5921     -2103.5554     -14.042448    
 199465000   295.95745     -6004.5971      1174.8602     -2183.1581      6.9530147    
 199470000   297.15708     -6012.7921      1158.02       -2197.4657     -34.86605     
 199475000   305.26145     -6006.4853      1204.1426     -2072.5635      4.8824665    
 199480000   304.35637     -6011.3601      1177.2504     -2112.4241      12.690689    
 199485000   298.74687     -6008.6404      1172.5376     -2164.5797      0.23529278   
 199490000   295.33739     -5997.1514      1138.922      -2217.1955      31.542338    
 199495000   302.34018     -6037.1864      1216.7644     -2116.7661      1.743482     
 199500000   305.92672     -5985.4114      1181.0198     -2068.6633     -14.49686     
 199505000   302.08005     -5977.2355      1212.2041     -2063.7016      5.605761     
 199510000   300.02428     -6000.8864      1194.9213     -2123.019       14.265657    
 199515000   306.5755      -6017.1031      1209.1799     -2066.3931     -29.200802    
 199520000   299.00274     -6019.3543      1181.5815     -2163.9617      17.54751     
 199525000   299.26019     -6015.2742      1224.1106     -2115.0502      2.3017415    
 199530000   297.91681     -6005.2034      1148.4803     -2192.6228      8.3446232    
 199535000   298.3468      -6012.597       1145.5235     -2199.1281      7.136318     
 199540000   301.03373     -6004.1833      1146.8424     -2165.3678     -13.611271    
 199545000   303.93123     -6019.0436      1156.463      -2144.6968     -6.4686371    
 199550000   299.21009     -6012.7426      1182.4372     -2154.6401      17.249031    
 199555000   294.94865     -5989.2061      1137.5183     -2214.1301      11.958588    
 199560000   298.91887     -6031.332       1192.566      -2165.7048      1.1540821    
 199565000   305.72956     -6006.0856      1216.4077     -2055.7127     -9.4834757    
 199570000   295.36745     -5993.705       1202.2602     -2150.142       16.667978    
 199575000   297.24037     -6007.2253      1139.7128     -2209.4612     -0.18219456   
 199580000   306.651       -6013.8975      1193.9118     -2077.7805      19.932271    
 199585000   298.2592      -6012.0153      1218.3429     -2126.5103      8.0016743    
 199590000   306.80139     -5989.9061      1174.9414     -2071.4146      12.055607    
 199595000   290.96127     -6006.9477      1168.5271     -2236.5198      11.044267    
 199600000   304.48098     -6009.3928      1173.8908     -2112.7021      12.66291     
 199605000   289.63238     -5997.7485      1193.0705     -2214.6606      26.623435    
 199610000   298.03565     -5997.6935      1145.8162     -2186.7143     -40.549075    
 199615000   303.28578     -6003.7926      1180.7567     -2110.9239      13.005587    
 199620000   294.85676     -6000.8424      1175.484      -2188.6224      26.555575    
 199625000   303.57779     -6029.5459      1159.4293     -2155.3935      18.13959     
 199630000   300.86445     -6035.7432      1140.0328     -2205.2511      13.370143    
 199635000   304.00498     -6010.9918      1196.566      -2095.8825     -0.11368027   
 199640000   299.56982     -6028.0775      1161.6714     -2187.5239     -8.580068     
 199645000   302.85811     -6001.4201      1125.944      -2167.1886      36.648549    
 199650000   304.47203     -6029.015       1170.6447     -2135.6504      2.6352858    
 199655000   299.97669     -6020.653       1181.0123     -2157.1201      15.282595    
 199660000   302.3365      -5995.2958      1159.0897     -2132.5831      18.302452    
 199665000   294.73215     -6029.9126      1211.6645     -2182.6265     -17.524406    
 199670000   293.92274     -6039.1065      1235.9143     -2174.8086     -6.6235131    
 199675000   301.72462     -6012.993       1160.7698     -2154.0719     -20.255543    
 199680000   298.87378     -6001.3432      1271.9422     -2056.7432     -42.507607    
 199685000   301.85863     -6036.6013      1150.7732     -2186.4784     -31.008914    
 199690000   295.32501     -6037.5077      1131.1053     -2265.4791      12.180766    
 199695000   299.31788     -6019.2247      1130.9994     -2211.5961     -3.2990819    
 199700000   295.81115     -5984.2674      1170.4758     -2168.5211      20.78925     
 199705000   292.38366     -6002.2171      1183.0001     -2204.5966      19.36203     
 199710000   303.23831     -6015.8865      1186.2522     -2117.9469     -13.366558    
 199715000   302.76821     -5989.2908      1164.9404     -2116.8668     -22.41365     
 199720000   309.92968     -6004.5087      1133.9358     -2099.0484     -27.111301    
 199725000   304.29747     -6015.6914      1178.1566     -2116.3759     -12.58694     
 199730000   297.72569     -5986.8632      1180.5413     -2143.9307      0.8380218    
 199735000   302.55731     -6030.067       1139.1655     -2185.3038     -50.633671    
 199740000   299.90976     -6010.5032      1214.1954     -2114.3857     -15.189034    
 199745000   303.25217     -6041.6271      1212.6896     -2117.1261     -0.54371867   
 199750000   303.46483     -6017.0275      1169.2344     -2134.0802     -7.5011446    
 199755000   303.52725     -6002.3524      1187.2905     -2100.7906     -1.1072189    
 199760000   301.04503     -6015.2924      1184.8913     -2138.327       2.9805839    
 199765000   306.11287     -6010.5647      1228.6199     -2044.5518     -4.9260917    
 199770000   299.31953     -6038.8092      1169.1173     -2193.0479     -11.378215    
 199775000   302.3358      -5983.9012      1170.1852     -2110.0993      24.377722    
 199780000   297.46035     -6008.2335      1195.8117     -2152.4034     -28.515028    
 199785000   299.26273     -6021.7451      1136.3043     -2209.3047      17.07126     
 199790000   294.61175     -6012.8688      1210.0181     -2168.3057      17.072969    
 199795000   294.79116     -5990.671       1257.6044     -2096.9172      0.98085189   
 199800000   306.96001     -5995.7508      1193.2127     -2057.5696      1.0264734    
 199805000   301.61684     -6035.6418      1188.219      -2150.2352      9.6146373    
 199810000   291.74584     -6014.2959      1185.6482     -2219.7309      25.110816    
 199815000   283.09712     -6050.887       1198.3946     -2320.9161     -1.0732283    
 199820000   293.49952     -6050.0752      1173.5474     -2251.9289      21.187657    
 199825000   299.64764     -6040.6634      1100.6134     -2260.4719     -21.293849    
 199830000   305.01201     -6010.5098      1146.1956     -2136.7656     -3.2841441    
 199835000   306.20375     -6031.9935      1189.8799     -2103.9079     -14.284831    
 199840000   296.00194     -6005.42        1183.227      -2175.2164     -12.778751    
 199845000   297.32111     -6011.3807      1168.1307     -2184.4767      19.19817     
 199850000   304.93188     -6059.9328      1185.671      -2147.4298     -10.286266    
 199855000   292.71101     -6000.8694      1159.2685     -2224.0533     -32.087392    
 199860000   295.79915     -5998.9216      1168.8491     -2184.9094     -12.855554    
 199865000   304.65911     -6043.2601      1149.425      -2169.4422      34.901071    
 199870000   302.58522     -6017.7328      1201.4883     -2110.3973      5.0821109    
 199875000   303.42266     -6056.5423      1198.9118     -2144.2945      1.7744027    
 199880000   298.94589     -5999.5502      1201.0739     -2125.1736      4.1662472    
 199885000   309.07427     -6062.5981      1153.5279     -2145.1951     -9.961428     
 199890000   292.73812     -6031.1644      1171.1052     -2242.2691     -11.010301    
 199895000   295.18404     -6034.0853      1179.8947     -2214.528       23.575394    
 199900000   300.24159     -6025.75        1187.168      -2153.6926      6.1478508    
 199905000   304.05988     -6018.3983      1182.2175     -2117.1465     -9.7691024    
 199910000   298.98716     -6013.4273      1157.7351     -2182.0204      23.235742    
 199915000   292.03905     -6016.6308      1119.2185     -2285.8735     -11.267802    
 199920000   305.01012     -6012.0373      1183.9736     -2100.532       5.4779785    
 199925000   302.46776     -5997.0883      1206.6626     -2085.6289      13.211587    
 199930000   298.16273     -6036.816       1205.8108     -2164.7058      10.044084    
 199935000   294.53777     -6022.0001      1182.0561     -2206.0606      6.8556834    
 199940000   301.09501     -6050.0956      1158.5438     -2199.0307     -14.278991    
 199945000   300.19964     -6022.7225      1173.8564     -2164.3518     -8.5670851    
 199950000   293.4547      -6039.1073      1193.3872     -2221.522      -14.20421     
 199955000   302.0197      -6045.4943      1173.2102     -2171.4941      0.92319463   
 199960000   298.9019      -6014.9357      1180.9255     -2161.1009     -12.650443    
 199965000   305.5971      -6038.6919      1171.2358     -2134.6753     -14.767823    
 199970000   302.66209     -6061.812       1151.1143     -2204.163       22.442945    
 199975000   299.96809     -6010.1973      1182.9815     -2144.7721      12.190217    
 199980000   294.57757     -6000.3061      1138.6953     -2227.3715      4.3726127    
 199985000   296.80147     -6012.9947      1146.5821     -2212.2862      44.544932    
 199990000   297.00647     -6033.9816      1197.5219     -2180.5001     -18.90726     
 199995000   303.74984     -6047.1689      1222.1102     -2108.797       25.286763    
 200000000   301.60995     -6041.7989      1142.4701     -2202.2028      23.262947    
 200005000   291.73893     -6045.4712      1170.311      -2266.3052      21.128018    
 200010000   299.32316     -6050.0366      1123.9348     -2249.4254      18.867135    
Loop time of 127587 on 64 procs for 200000000 steps with 3001 atoms

Performance: 4063.124 ns/day, 0.006 hours/ns, 1567.563 timesteps/s
99.6% CPU use with 64 MPI tasks x 1 OpenMP threads

MPI task timing breakdown:
Section |  min time  |  avg time  |  max time  |%varavg| %total
---------------------------------------------------------------
Pair    | 198.96     | 3655.7     | 27406      |13992.4 |  2.87
Bond    | 190.68     | 443.51     | 2079.1     |2917.0 |  0.35
Neigh   | 39457      | 40406      | 41726      | 311.3 | 31.67
Comm    | 52639      | 81029      | 86052      |3577.2 | 63.51
Output  | 172.7      | 173.82     | 174.55     |   4.0 |  0.14
Modify  | 313.62     | 719.86     | 3170.7     |3435.3 |  0.56
Other   |            | 1159       |            |       |  0.91

Nlocal:        46.8906 ave         233 max           0 min
Histogram: 31 25 0 0 0 0 0 0 0 8
Nghost:        3477.75 ave        3910 max        2944 min
Histogram: 8 0 0 1 22 1 14 10 0 8
Neighs:        936.891 ave        7229 max           0 min
Histogram: 56 0 0 0 0 0 0 0 4 4
FullNghs:      1873.78 ave       13830 max           0 min
Histogram: 56 0 0 0 0 0 0 0 1 7

Total # of neighbors = 119922
Ave neighs/atom = 39.96068
Ave special neighs/atom = 3.5988004
Neighbor list builds = 20000000
Dangerous builds = 20000000
Total wall time: 35:26:30
