LAMMPS (23 Jun 2022)
OMP_NUM_THREADS environment is not set. Defaulting to 1 thread. (src/src/comm.cpp:98)
  using 1 OpenMP thread(s) per MPI task
Created orthogonal box = (0 0 0) to (150 150 150)
  2 by 3 by 3 MPI processor grid
Read molecule template lig:
  1 molecules
  0 fragments
  5 atoms with max type 2
  4 bonds with max type 1
  3 angles with max type 1
  0 dihedrals with max type 0
  0 impropers with max type 0
Created 1 atoms
  using box units in orthogonal box = (0 0 0) to (150 150 150)
  create_atoms CPU = 0.000 seconds
Created 2000 atoms
  using lattice units in orthogonal box = (0 0 0) to (150 150 150)
  create_atoms CPU = 0.003 seconds
Finding 1-2 1-3 1-4 neighbors ...
  special bond factors lj:    0        1        1       
  special bond factors coul:  0        0        0       
     2 = max # of 1-2 neighbors
     2 = max # of 1-3 neighbors
     2 = max # of 1-4 neighbors
     7 = max # of special neighbors
  special bonds CPU = 0.001 seconds
2000 atoms in group ligands
Generated 0 of 6 mixed pair_coeff terms from geometric mixing rule
Neighbor list info ...
  update every 1 steps, delay 10 steps, check yes
  max neighbors/atom: 2000, page size: 100000
  master list distance cutoff = 60
  ghost atom cutoff = 60
  binsize = 30, bins = 5 5 5
  1 neighbor lists, perpetual/occasional/extra = 1 0 0
  (1) pair lj/expand, perpetual
      attributes: half, newton on
      pair build: half/bin/newton
      stencil: half/bin/3d
      bin: standard
Setting up Verlet run ...
  Unit style    : real
  Current step  : 0
  Time step     : 30
Per MPI rank memory allocation (min/avg/max) = 8.22 | 8.239 | 8.255 Mbytes
   Step          Temp          E_pair         E_mol          TotEng         Press     
         0   0              9.5502511e+12  2.2961588e-25  9.5502511e+12  7.7611341e+11
      5000   140.5749      -340.18427      439.47387      937.34377      4.6022034    
     10000   138.49045     -387.07799      410.12293      848.67237     -9.2129653    
Loop time of 2.46986 on 18 procs for 10000 steps with 2001 atoms

Performance: 10494.532 ns/day, 0.002 hours/ns, 4048.816 timesteps/s
99.6% CPU use with 18 MPI tasks x 1 OpenMP threads

MPI task timing breakdown:
Section |  min time  |  avg time  |  max time  |%varavg| %total
---------------------------------------------------------------
Pair    | 0.081328   | 0.15263    | 0.23234    |  10.7 |  6.18
Bond    | 0.047627   | 0.065447   | 0.092392   |   4.1 |  2.65
Neigh   | 0.85628    | 0.86015    | 0.86563    |   0.3 | 34.83
Comm    | 1.1291     | 1.2606     | 1.3494     |   5.5 | 51.04
Output  | 7.8772e-05 | 8.7395e-05 | 0.00010798 |   0.0 |  0.00
Modify  | 0.066924   | 0.085529   | 0.114      |   4.1 |  3.46
Other   |            | 0.04544    |            |       |  1.84

Nlocal:        111.167 ave         149 max          78 min
Histogram: 2 3 0 2 1 4 1 3 1 1
Nghost:        3228.94 ave        3398 max        3018 min
Histogram: 2 1 1 3 1 1 2 3 1 3
Neighs:        541.944 ave         810 max         270 min
Histogram: 2 0 3 2 3 3 0 1 0 4

Total # of neighbors = 9755
Ave neighs/atom = 4.8750625
Ave special neighs/atom = 3.5982009
Neighbor list builds = 909
Dangerous builds = 0
1 atoms in group nps
400 atoms in group amines
Generated 0 of 6 mixed pair_coeff terms from geometric mixing rule
Neighbor list info ...
  update every 1 steps, delay 10 steps, check yes
  max neighbors/atom: 2000, page size: 100000
  master list distance cutoff = 60
  ghost atom cutoff = 60
  binsize = 30, bins = 5 5 5
  2 neighbor lists, perpetual/occasional/extra = 1 1 0
  (1) pair lj/expand, perpetual
      attributes: half, newton on
      pair build: half/bin/newton
      stencil: half/bin/3d
      bin: standard
  (2) compute coord/atom, occasional
      attributes: full, newton on
      pair build: full/bin
      stencil: full/bin/3d
      bin: standard
Setting up Verlet run ...
  Unit style    : real
  Current step  : 10000
  Time step     : 30
Per MPI rank memory allocation (min/avg/max) = 7.591 | 7.625 | 7.87 Mbytes
   Step          Temp          E_pair         E_mol          TotEng         Press     
     10000   138.49045     -387.07799      410.12293      848.67237     -9.2129653    
     15000   299.30268     -475.96389      882.32404      2190.689       2.6896471    
     20000   305.50849     -562.94179      872.71007      2131.0938     -2.9070564    
     25000   304.33101     -635.83892      853.78676      2032.2537      5.6861416    
     30000   301.29253     -686.48451      809.45811      1919.1652      0.13903428   
     35000   301.15355     -783.13416      870.31481      1882.5437      10.848821    
     40000   299.60774     -881.61079      852.42115      1756.9579     -10.275133    
     45000   300.96525     -952.86057      857.61785      1698.9978     -4.0240015    
     50000   299.21524     -1002.046       795.12656      1576.8882      12.703074    
     55000   296.02301     -1080.7342      855.60047      1539.643       16.206556    
     60000   291.38103     -1135.8071      839.7016       1440.9975      6.6198762    
     65000   285.56571     -1201.2077      866.42769      1367.6543      9.3590957    
     70000   302.895       -1307.3558      886.78033      1385.1695      3.8044156    
     75000   299.90869     -1352.6419      848.62515      1283.9249      17.87076     
     80000   299.75381     -1423.4088      835.69633      1199.3059      6.1293313    
     85000   298.76382     -1423.1338      832.83393      1190.8165     -1.1773746    
     90000   296.46199     -1443.0711      852.40557      1176.7282      4.645816     
     95000   301.07134     -1473.0645      874.2191       1196.0275     -8.1284376    
    100000   292.44671     -1515.2125      809.63351      1037.8772      7.9428967    
    105000   293.45196     -1515.8482      842.24675      1075.8477      5.7098071    
    110000   305.1659      -1581.0659      842.25439      1080.4717      6.7241356    
    115000   296.86392     -1645.8907      817.26349      941.16266      2.1539271    
    120000   298.5217      -1652.6275      855.25827      982.3038      -3.4833434    
    125000   291.62621     -1649.1955      834.53079      923.89993      12.245874    
    130000   297.64053     -1630.5961      866.26694      1010.0906      23.315005    
    135000   296.611       -1667.1929      839.20383      940.29305      3.5002136    
    140000   293.92088     -1691.2907      814.87392      875.82789     -8.2927758    
    145000   300.95794     -1728.1527      879.20398      945.24821     -21.922578    
    150000   307.22724     -1722.7347      838.73787      947.57528     -0.34316579   
    155000   300.08289     -1747.084       810.96205      852.85824      10.332184    
    160000   303.29526     -1747.8324      844.59497      904.89367     -7.5454932    
    165000   305.14401     -1763.0463      839.05585      895.16221     -4.2625468    
    170000   302.75482     -1784.8338      828.13707      848.21253      14.597134    
    175000   297.48927     -1814.0038      851.67701      811.19119     -0.8939189    
    180000   302.60492     -1833.2465      852.85625      823.62535     -3.2196187    
    185000   301.48533     -1851.0141      848.89813      795.22508     -5.688527     
    190000   300.23635     -1832.6131      843.13912      800.42103     -14.729831    
    195000   298.78315     -1838.2028      821.80769      764.83653     -10.009602    
    200000   294.20004     -1875.0574      810.33581      689.18734     -3.054048     
    205000   301.56231     -1909.2923      884.62436      773.13203      2.7458828    
    210000   301.28589     -1912.3996      855.64933      739.4017       2.8793743    
    215000   292.81915     -1942.5091      844.14547      647.31291     -15.174071    
    220000   298.38463     -1929.8717      800.92867      649.91284      8.8564228    
    225000   302.45502     -1967.2977      802.7985       638.62273      18.952726    
    230000   303.26261     -1984.1005      839.91527      663.75128     -12.401922    
    235000   298.60303     -1998.4285      841.00021      622.72953      21.246611    
    240000   291.81587     -1978.7489      837.68118      598.62761      2.2900608    
    245000   302.10471     -2017.7524      847.52956      630.81069     -10.474394    
    250000   294.18566     -2020.1746      817.51129      551.15987      0.10817312   
    255000   305.78078     -2029.5988      836.81945      630.16948     -6.7971272    
    260000   304.28754     -2011.3487      850.77008      653.46812      13.542196    
    265000   311.19564     -2051.1247      810.6632       614.76863     -3.7831       
    270000   304.50707     -2038.0916      886.26265      663.52646      1.2215492    
    275000   291.16758     -2047.8203      810.26601      498.27619     -17.26704     
    280000   285.19031     -2056.5235      850.2926       493.96537     -17.924555    
    285000   302.31164     -2060.2427      805.6798       547.70418     -5.9160466    
    290000   296.48352     -2092.4855      813.5897       488.6263      -13.313988    
    295000   298.31914     -2097.5656      802.23246      483.13217     -5.2093024    
    300000   305.34375     -2091.4097      841.58685      570.52061     -14.653842    
    305000   298.75833     -2117.2343      847.34926      511.19864     -0.81678796   
    310000   294.0337      -2126.6511      795.02152      421.28766      8.6770557    
    315000   300.24252     -2117.958       821.45999      493.43387      13.16512     
    320000   296.84175     -2117.8007      800.44834      452.30533      11.234033    
    325000   309.81489     -2113.1672      832.94364      566.77514      11.485424    
    330000   299.4481      -2134.5126      834.8166       485.49981      7.937022     
    335000   301.19715     -2161.4328      849.5963       483.7865       20.65676     
    340000   298.45365     -2141.5884      801.10491      438.78381     -3.6151157    
    345000   296.87958     -2150.9963      791.66579      410.55276      11.803745    
    350000   305.15767     -2164.9892      799.2411       453.486       -6.5678486    
    355000   306.76811     -2175.5353      826.88658      480.18621     -2.3406033    
    360000   308.14473     -2172.4721      785.14044      449.71012      14.689296    
    365000   294.83299     -2189.3328      775.85856      344.20801     -15.235605    
    370000   303.11372     -2166.697       815.4348       455.78662      16.432784    
    375000   304.24463     -2198.1108      816.56781      432.24796      22.251519    
    380000   297.40253     -2197.6484      820.3799       395.73242      4.997787     
    385000   299.19381     -2199.1081      844.79108      429.36283      3.8824273    
    390000   303.89824     -2205.6691      781.77295      387.8297       32.589222    
    395000   299.41977     -2172.2655      835.84898      448.61036     -12.881833    
    400000   312.04396     -2198.5691      771.49858      433.21703      20.71618     
    405000   295.60492     -2232.6089      804.11266      333.78802     -5.9576974    
    410000   299.98135     -2232.5675      859.0906       414.89795      6.6625137    
    415000   293.58431     -2218.5977      759.6097       291.25005      12.510143    
    420000   302.35102     -2228.3294      817.07756      391.25001      2.7547969    
    425000   295.1204      -2208.7765      821.33229      371.95147     -6.0112532    
    430000   289.14737     -2235.9477      846.55741      334.3965      -2.8880072    
    435000   295.2978      -2219.5264      811.67268      352.59951      20.187088    
    440000   293.29963     -2205.3934      786.21549      329.36311      20.43791     
    445000   293.54844     -2230.9739      820.36539      339.41579     -4.3356665    
    450000   303.99595     -2223.076       881.04455      470.2769      -8.4318542    
    455000   298.81365     -2205.9172      865.62543      441.12173      12.43775     
    460000   302.12098     -2217.6492      869.68847      453.16973      13.001112    
    465000   300.40647     -2216.6189      778.59475      352.88512      4.0897096    
    470000   289.15212     -2221.4697      806.26271      308.60811      1.047625     
    475000   298.86977     -2227.6015      858.40634      412.55282      6.4624936    
    480000   298.91003     -2228.2061      813.34146      367.12339     -17.889231    
    485000   297.49474     -2239.1465      810.16087      344.56502      1.9162836    
    490000   299.52781     -2236.35        817.4941       366.81505      0.14364735   
    495000   292.54035     -2281.4971      820.52538      283.04273     -6.320879     
    500000   301.3134      -2243.5238      804.21586      357.00804     -5.647398     
    505000   304.63645     -2272.4776      825.7361       369.3853       19.955094    
    510000   307.12028     -2295.6112      814.52053      349.84378      2.2625148    
    515000   290.89989     -2290.0243      809.84807      254.05838     -10.22527     
    520000   306.18078     -2294.0126      812.92696      344.24783     -7.8724101    
    525000   303.67323     -2285.7952      795.93116      320.52035     -15.106719    
    530000   297.41274     -2311.3799      852.69502      314.37687      7.2230262    
    535000   300.26748     -2291.2293      808.55716      307.4085       1.0119746    
    540000   295.24193     -2300.2315      826.69724      286.58594     -30.785371    
    545000   294.93675     -2313.0769      835.76769      280.99162     -18.279964    
    550000   311.20124     -2312.44        820.65526      363.47887     -2.3512055    
    555000   299.88889     -2317.0904      826.94236      297.67561     -17.156788    
    560000   298.22994     -2286.8891      791.69597      282.74046     -17.68996     
    565000   298.1831      -2317.8385      804.14447      263.96031      1.874868     
    570000   300.71651     -2293.2333      808.79523      308.31954      3.6988537    
    575000   299.30226     -2294.1361      790.7233       280.91356      32.717369    
    580000   297.35422     -2291.7371      835.03117      316.00696      1.3382895    
    585000   303.19612     -2284.1517      843.04416      366.43259      17.264647    
    590000   306.79338     -2306.9059      844.81648      366.89619     -14.412331    
    595000   300.80975     -2288.3981      776.73907      281.65439     -6.2735958    
    600000   298.54397     -2286.2858      777.67299      271.19295      7.7833223    
    605000   310.87687     -2299.1551      837.84016      392.01484     -1.8478492    
    610000   303.61853     -2316.7826      837.21045      330.48616      5.4998913    
    615000   295.71507     -2304.4231      811.83158      270.34933      9.1716525    
    620000   284.81826     -2315.3189      793.93934      176.5987       7.4852556    
    625000   306.60138     -2307.4737      854.2859       374.65315     -3.9401784    
    630000   305.57852     -2320.6573      859.56943      360.65514     -14.180166    
    635000   303.63979     -2339.5497      849.97883      320.61422      12.450041    
    640000   301.58634     -2341.3722      791.35098      247.92195      0.085668288  
    645000   298.21837     -2343.9144      817.05212      251.00232     -0.99615556   
    650000   305.67765     -2356.0732      825.3967       291.65753      12.833149    
    655000   293.14344     -2337.9082      813.80076      223.50235     -2.8735036    
    660000   302.11545     -2295.3274      786.08911      291.85927      13.862768    
    665000   297.03373     -2316.894       796.34261      250.25088      0.71282698   
    670000   292.21896     -2328.7061      819.66267      233.055        1.683724     
    675000   301.42133     -2311.7084      817.45724      302.70835     -8.3540914    
    680000   300.36591     -2317.8543      794.14953      266.96261      16.231548    
    685000   303.11206     -2341.7351      794.22057      259.52441      18.010793    
    690000   294.15554     -2332.0532      834.54038      256.13073      5.4073957    
    695000   288.76219     -2293.2646      835.4857       263.71158     -8.9120862    
    700000   294.93261     -2337.2261      808.63263      229.68277     -2.4776439    
    705000   302.13414     -2305.3362      809.17465      305.04739      19.256792    
    710000   297.15905     -2337.0027      799.69607      234.2428      -8.7138592    
    715000   301.65718     -2341.382       775.32768      232.31116     -16.873137    
    720000   290.1611      -2337.8792      832.47183      224.42288      6.0747265    
    725000   301.16509     -2334.0985      807.58685      268.92022      6.4495784    
    730000   303.2868      -2344.1784      808.60762      272.50985     -7.2508989    
    735000   310.55973     -2358.1623      823.55543      316.83225     -8.1502118    
    740000   307.35988     -2363.3199      853.88765      322.93055     -2.1798288    
    745000   306.90761     -2338.1811      816.24706      307.73251      11.817539    
    750000   300.79771     -2343.802       813.37514      262.81475      10.164231    
    755000   305.39327     -2327.5214      834.71581      327.83306      16.07016     
    760000   308.39867     -2317.5323      838.10351      359.12688      28.590281    
    765000   293.11583     -2309.0215      840.67947      279.10314      13.914685    
    770000   291.81538     -2330.8434      823.9177       232.76672      15.08804     
    775000   304.91416     -2327.7973      807.35743      297.34255      24.346503    
    780000   292.42796     -2327.8956      840.36845      255.81723     -3.6526693    
    785000   297.77814     -2286.0684      795.08762      284.25935      14.936249    
    790000   296.35695     -2334.4515      828.21006      260.5261      -17.607321    
    795000   307.77357     -2343.4985      823.22454      314.55521     -20.714512    
    800000   295.80529     -2311.3813      788.29585      240.39334     -18.818878    
    805000   298.1165      -2302.5051      820.57014      295.32231     -4.1361962    
    810000   291.22646     -2335.7047      803.48554      203.96241      12.439933    
    815000   297.33425     -2321.2341      803.48316      254.84294      7.3302833    
    820000   297.25008     -2301.9042      827.47067      297.65848     -2.559912     
    825000   302.33513     -2308.7416      795.29741      288.96305      0.34529425   
    830000   292.74501     -2323.9025      803.67341      225.0055       12.690152    
    835000   298.64527     -2320.8318      813.97312      273.55097     -15.635131    
    840000   293.04753     -2296.024       815.43256      266.44661     -5.8970564    
    845000   302.70992     -2292.9295      832.2232       343.93528     -14.534725    
    850000   293.76783     -2291.9571      804.24935      263.62447     -9.4932082    
    855000   310.62769     -2296.6047      852.44221      407.68184     -2.5414751    
    860000   296.55028     -2293.4561      823.52292      297.98689     -8.0987914    
    865000   312.85325     -2308.8099      812.17954      368.48181      16.440247    
    870000   310.52031     -2293.3726      852.79111      410.62269      26.698874    
    875000   304.2869      -2294.4365      827.38068      346.9871       7.9862233    
    880000   292.11094     -2320.2593      834.13276      255.32794     -4.0815052    
    885000   294.23643     -2319.2628      792.5866       227.44965     -3.203888     
    890000   299.93125     -2298.1364      812.13076      302.07057     -1.4867473    
    895000   300.15101     -2293.4613      835.03923      330.96424     -8.9810693    
    900000   293.72508     -2291.7575      817.87936      277.19916     -10.810221    
    905000   310.00498     -2328.9779      808.59797      327.75201      12.979955    
    910000   298.66933     -2314.1985      800.22876      266.5833       17.32601     
    915000   299.01413     -2292.0925      816.01965      306.53584      9.4129885    
    920000   309.68344     -2294.3176      817.13815      369.03557     -2.20457      
    925000   304.46069     -2312.7152      840.73328      343.09704      1.7136096    
    930000   284.66219     -2330.2063      845.11208      211.95362      32.195575    
    935000   300.07487     -2316.3391      802.80437      275.39766      7.484719     
    940000   305.75394     -2323.191       808.20083      307.79871      18.638143    
    945000   291.18142     -2324.2057      804.11001      215.81737     -2.8430783    
    950000   292.12817     -2336.1077      827.68653      233.13599     -15.864183    
    955000   298.86954     -2295.8325      822.47255      308.38667      12.95768     
    960000   290.49063     -2303.2039      796.65037      225.24126     -4.5034442    
    965000   304.29917     -2339.5354      795.77716      270.35774     -21.384596    
    970000   302.51232     -2330.7059      845.37087      318.12849      9.5510173    
    975000   302.06907     -2345.6213      790.87823      246.07792     -14.497921    
    980000   308.64795     -2342.8867      777.75433      274.90948     -5.9011918    
    985000   298.461       -2337.8564      818.73662      260.19136      12.766954    
    990000   296.52711     -2332.7388      841.02893      276.07214      15.08394     
    995000   292.85516     -2315.4203      787.4581       217.92904     -12.457439    
   1000000   299.32718     -2323.7245      806.23095      266.9814       26.170078    
   1005000   302.51652     -2311.5789      826.26498      318.17465     -1.3699651    
   1010000   303.39347     -2316.1327      870.89803      363.48197      2.4881489    
   1015000   294.05571     -2308.7878      821.34453      265.60519      7.4222897    
   1020000   289.72216     -2297.472       822.02177      251.76321      10.266772    
   1025000   299.1975      -2335.1159      792.42553      241.01148     -1.9891172    
   1030000   294.61971     -2308.4979      884.7598       332.67268     -2.7123328    
   1035000   291.26458     -2299.2872      861.38508      298.50671      4.9611878    
   1040000   294.16471     -2312.0192      813.85456      255.53361      14.620126    
   1045000   299.88817     -2289.1464      792.8048       291.47773     -3.2841795    
   1050000   303.23503     -2322.308       832.62674      318.09073      13.434145    
   1055000   294.44538     -2324.4873      805.64807      236.53222     -8.16145      
   1060000   293.93363     -2329.5091      803.83887      226.6504       25.713055    
   1065000   297.61526     -2339.1546      834.45105      269.56563     -5.7078132    
   1070000   299.56975     -2333.4817      815.84192      268.28128     -0.33721997   
   1075000   301.09591     -2322.9907      831.9583       303.98704     -5.8285639    
   1080000   290.21791     -2308.4034      809.15648      230.92204      0.92487025   
   1085000   298.52572     -2353.1778      814.16819      240.68731     -1.3047137    
   1090000   305.01902     -2353.0221      796.97392      262.35929      3.3720595    
   1095000   295.07777     -2337.1426      825.96278      247.96179      8.8318685    
   1100000   291.89566     -2323.3587      800.82509      217.63746     -3.2910418    
   1105000   300.01069     -2354.6728      806.23405      240.11101     -1.2007485    
   1110000   306.45452     -2398.3618      807.55701      236.16058      1.34381      
   1115000   293.961       -2360.1026      801.02791      193.40912      23.921177    
   1120000   304.17167     -2332.7103      806.30309      286.94868     -0.74139386   
   1125000   300.31977     -2359.6629      812.30677      243.03624      33.127377    
   1130000   292.36412     -2333.3426      838.69739      248.31866      14.408817    
   1135000   289.25921     -2335.2777      789.17585      178.35167      10.752324    
   1140000   294.18146     -2360.8213      808.55952      201.53627     -0.19990399   
   1145000   315.35698     -2339.0536      830.45786      371.44282      1.4631464    
   1150000   301.42489     -2377.2593      772.20834      191.92971     -1.540329     
   1155000   306.37732     -2371.6665      837.25522      292.09391      0.67465163   
   1160000   304.35004     -2363.0364      787.80229      239.18526      16.254704    
   1165000   298.45352     -2363.7587      809.00052      224.5084      -13.714306    
   1170000   294.56194     -2392.291       819.66412      183.43955      24.265086    
   1175000   292.4178      -2369.1397      781.82218      155.96634     -8.0809071    
   1180000   302.28603     -2369.2459      778.17095      211.03949      0.25285359   
   1185000   307.54064     -2409.1207      821.14241      245.4622       16.099928    
   1190000   293.25543     -2388.8402      821.11021      180.54742      7.9490258    
   1195000   292.33206     -2385.5079      791.23758      148.50238      10.362139    
   1200000   304.48319     -2369.3515      833.49207      279.35363     -4.8367103    
   1205000   303.29242     -2367.4295      783.70162      224.38629     -3.5121087    
   1210000   291.77511     -2361.2112      817.55777      195.79892      10.623464    
   1215000   306.56473     -2370.6699      865.64662      322.59919     -20.561327    
   1220000   299.41025     -2355.522       820.95616      250.40431      15.576588    
   1225000   300.61431     -2340.648       853.66589      305.16619      3.3445697    
   1230000   297.77494     -2334.7383      827.9236       268.40644     -2.1067619    
   1235000   298.93084     -2307.8154      827.10385      301.40054     -12.470493    
   1240000   287.6855      -2341.9974      812.65223      185.72646      8.1728746    
   1245000   295.86306     -2365.5785      805.20417      203.44888     -3.9196666    
   1250000   302.15528     -2378.2066      796.45654      219.58494      26.201962    
   1255000   305.51083     -2381.4982      787.70037      227.54171      24.005892    
   1260000   300.79589     -2366.5221      834.9274       261.63613      8.503038     
   1265000   303.38566     -2334.3201      843.22996      317.57993      8.5100264    
   1270000   295.24929     -2337.9533      779.159        201.36985      0.43044759   
   1275000   302.1228      -2328.8204      780.85372      253.1747       6.4940353    
   1280000   308.89592     -2301.8117      827.02773      366.73617      3.7570532    
   1285000   304.1101      -2321.6357      813.15333      304.50655      11.682683    
   1290000   304.73524     -2313.0275      790.80703      294.49527     -8.3287525    
   1295000   300.23426     -2314.7078      810.38907      285.56383      5.2252682    
   1300000   300.76194     -2338.8349      798.03387      252.22736      16.093753    
   1305000   310.87741     -2334.9987      828.82786      347.16211     -23.398281    
   1310000   294.26098     -2323.4653      831.55988      262.36677      9.2017889    
   1315000   299.02301     -2322.8947      824.58707      284.35392      2.4885534    
   1320000   311.43351     -2363.1249      858.20195      351.72534     -11.731189    
   1325000   297.65127     -2316.0363      848.82385      307.27138      3.7956325    
   1330000   301.0079      -2314.9876      840.15161      319.65878     -16.305729    
   1335000   295.59126     -2345.0685      831.30036      248.43472      11.679315    
   1340000   300.20421     -2358.6274      779.00728      210.08329      4.9339211    
   1345000   288.92557     -2338.6254      829.23504      213.0741       16.297326    
   1350000   302.1153      -2334.1326      808.99282      275.95692     -11.573684    
   1355000   296.53099     -2337.2662      794.99998      225.53885     -13.994048    
   1360000   303.2035      -2305.2929      819.95143      322.24264      14.011707    
   1365000   300.87764     -2295.3107      828.18057      326.58805     -8.2960758    
   1370000   296.8787      -2339.1367      888.5166       319.25794     -15.9766      
   1375000   293.80306     -2320.224       814.89881      246.21706     -4.4099       
   1380000   285.51619     -2341.2453      809.95408      170.8478      -19.050947    
   1385000   304.53034     -2321.0733      832.09968      326.52059     -6.9327427    
   1390000   299.04871     -2303.017       830.02095      309.8188       2.8686419    
   1395000   291.54125     -2337.3562      836.73178      237.43378     -1.4471016    
   1400000   300.04384     -2323.2859      807.32289      272.78441     -7.3542881    
   1405000   313.04213     -2354.3156      825.4296       337.35228      11.015269    
   1410000   302.29377     -2335.0245      845.79529      312.93145      8.3926063    
   1415000   302.87308     -2332.1043      792.50868      266.01867      1.2130741    
   1420000   307.21939     -2319.5076      793.91148      305.92921     -3.5236912    
   1425000   299.6893      -2339.1805      837.18908      284.6424      -10.97348     
   1430000   301.2963      -2337.986       828.33111      286.5592       0.16944622   
   1435000   296.14006     -2336.6492      794.73378      223.55917      0.75610758   
   1440000   291.80109     -2364.5669      788.46088      163.50123     -4.9815473    
   1445000   311.10834     -2333.9587      798.78637      319.53738      14.513839    
   1450000   293.76362     -2337.3781      788.11263      202.04164      4.6594424    
   1455000   305.73832     -2340.0374      821.86057      304.51886      17.541988    
   1460000   304.40424     -2345.0219      786.19641      255.91688     -2.5059147    
   1465000   296.48719     -2351.421       808.91364      225.03661      2.6686142    
   1470000   305.96192     -2345.4953      839.25272      317.78618     -3.4395842    
   1475000   297.33723     -2334.2902      865.85196      304.17332      6.0582092    
   1480000   300.07437     -2331.6284      802.49424      259.79524     -11.710206    
   1485000   294.95114     -2352.7918      790.64303      196.23794     -3.9665019    
   1490000   295.89493     -2359.1494      781.6995       186.56324     -0.87600043   
   1495000   300.59934     -2334.9067      831.74763      288.89999     -3.5997507    
   1500000   304.28468     -2373.0609      810.57134      251.54014     -2.1431152    
   1505000   303.58236     -2376.3731      837.50901      270.97863     -4.820756     
   1510000   300.14239     -2378.47        820.60942      231.47429     -16.690601    
   1515000   302.4476      -2353.3249      813.82568      263.57851      0.72057603   
   1520000   304.00996     -2369.9203      823.60115      266.0728       4.8797911    
   1525000   299.51613     -2389.635       813.22384      209.19028     -16.98548     
   1530000   284.29588     -2397.1046      780.46696      78.226384     -19.358604    
   1535000   305.56099     -2382.6958      788.80144      227.74415     -19.007559    
   1540000   296.48218     -2372.9446      812.07646      206.64593     -11.392923    
   1545000   304.56791     -2351.6368      816.61075      280.69218      7.5890647    
   1550000   296.96354     -2354.243       850.64304      266.78385      3.0752526    
   1555000   304.02821     -2362.6734      844.97643      294.80369     -7.4725559    
   1560000   302.42028     -2358.4595      777.57985      222.03514      6.723804     
   1565000   303.59724     -2377.5908      821.53652      253.87711      2.6626146    
   1570000   295.45453     -2373.3278      799.1587       187.21857      0.16060382   
   1575000   291.19474     -2404.2495      848.95399      180.69687     -2.5054733    
   1580000   303.30889     -2379.3899      801.6701       230.4926       4.1847416    
   1585000   304.83896     -2375.6113      812.60496      254.32775      10.712198    
   1590000   307.97517     -2386.052       813.40783      263.3868       3.2174249    
   1595000   291.63447     -2377.3653      819.57706      180.82563     -11.052134    
   1600000   296.1568      -2397.1577      821.1627       189.57931      22.43893     
   1605000   305.69472     -2383.106       806.14643      245.47624     -16.689783    
   1610000   299.92861     -2362.3436      825.34123      251.05808     -5.6102285    
   1615000   298.88959     -2400.061       800.60924      182.41441      15.792269    
   1620000   304.04123     -2399.6284      812.56718      225.5171       20.863134    
   1625000   307.50695     -2395.0133      815.44464      253.67098      5.6276911    
   1630000   301.1684      -2407.4898      819.02841      206.99016      13.620011    
   1635000   303.17705     -2394.1725      831.23256      244.48651      15.225508    
   1640000   304.2499      -2410.368       837.88498      241.33924     -0.29359952   
   1645000   307.93525     -2388.9783      819.51255      266.32716      6.7006304    
   1650000   295.65893     -2388.0417      837.3683       211.93277      1.2923297    
   1655000   307.25714     -2403.9866      793.82354      221.58734      4.4563012    
   1660000   304.20659     -2403.0767      845.59514      256.08259      23.979635    
   1665000   295.41321     -2397.8484      820.74608      184.03901     -2.9657667    
   1670000   302.1439      -2390.2302      825.25522      236.29217     -11.162582    
   1675000   307.42587     -2428.1794      799.3331       203.90995     -9.8930258    
   1680000   299.27349     -2405.1989      803.56824      182.52417     -24.608285    
   1685000   303.21231     -2424.7613      805.3243       188.19956     -10.515268    
   1690000   296.84639     -2421.7245      806.93953      154.90045      10.94811     
   1695000   304.4481      -2389.7563      798.6397       223.88736      5.6917382    
   1700000   295.8944      -2406.7213      816.12506      173.4137       5.6609199    
   1705000   300.60348     -2393.6015      807.89776      206.38         6.5380908    
   1710000   294.66611     -2404.6179      821.33671      173.40626      20.069385    
   1715000   298.94822     -2404.6908      802.11552      179.64044      18.332089    
   1720000   294.50863     -2382.4461      820.29212      193.59465      6.9286338    
   1725000   308.24793     -2423.8966      802.48012      216.24059      10.815307    
   1730000   295.13224     -2439.5239      789.09082      109.03317      6.3831529    
   1735000   288.89758     -2394.3778      786.03397      113.95384     -5.885624     
   1740000   298.01255     -2381.7447      834.60874      229.50166     -0.63472001   
   1745000   303.32035     -2363.8916      820.20423      264.59331      3.2500916    
   1750000   301.20551     -2375.1953      806.00582      226.48334     -4.0838349    
   1755000   299.20715     -2398.4903      842.36171      227.63075     -8.9600861    
   1760000   304.34085     -2401.7248      808.54796      221.18766      7.5190419    
   1765000   307.01398     -2397.2118      847.84133      280.93027      20.449496    
   1770000   295.54619     -2395.9346      822.27068      188.27017      19.911725    
   1775000   305.09866     -2394.5195      820.38543      244.74822     -4.9227853    
   1780000   297.87763     -2384.4144      805.70214      197.12097      8.0597809    
   1785000   297.04215     -2375.9866      817.11329      211.97917      15.847634    
   1790000   305.58987     -2380.7588      826.57489      267.62678      13.716993    
   1795000   303.44804     -2383.0475      832.39498      258.38939     -2.9298363    
   1800000   302.12179     -2382.3634      816.00541      234.77736      3.6657366    
   1805000   303.98569     -2380.7659      849.58063      281.06192     -16.81133     
   1810000   285.58881     -2392.0152      836.28261      146.83937      13.842649    
   1815000   301.38584     -2386.553       805.98197      216.1769      -5.3540328    
   1820000   308.52712     -2367.6145      810.64036      282.34732     -5.3899081    
   1825000   299.19165     -2364.0816      823.46335      243.04877      2.1794225    
   1830000   294.79767     -2360.5619      754.74354      151.65338     -34.249913    
   1835000   305.51171     -2344.7982      830.86019      307.40676      13.058105    
   1840000   294.71791     -2325.1334      839.87636      271.73922     -11.634997    
   1845000   299.77046     -2344.0562      822.16291      265.22438     -1.3738409    
   1850000   307.866       -2339.15        846.02033      342.25044      4.2973569    
   1855000   304.61382     -2359.9338      790.47231      246.53034      15.111379    
   1860000   303.52271     -2366.5205      801.64089      244.60746      0.73324629   
   1865000   296.88491     -2360.1752      821.78888      231.52872      26.669279    
   1870000   297.89437     -2392.7643      815.88858      199.05738     -7.7209857    
   1875000   301.1005      -2385.9503      813.35138      222.44782      2.5388306    
   1880000   302.21182     -2372.0904      806.39833      235.98005      4.5669291    
   1885000   292.13306     -2385.5342      816.7004       172.75255     -19.328344    
   1890000   308.29595     -2359.5248      809.35936      287.77787     -12.442421    
   1895000   303.50681     -2371.7379      849.33754      286.99197      17.96602     
   1900000   304.54479     -2387.1348      782.95724      211.40276     -6.3200283    
   1905000   293.07798     -2376.6341      834.48569      205.07112      4.7628967    
   1910000   298.60584     -2350.6077      806.49208      236.05895      12.332781    
   1915000   294.86605     -2378.6297      811.16245      190.41205      14.913541    
   1920000   294.82935     -2360.1621      810.11113      207.60962      7.181341     
   1925000   296.20839     -2371.8887      772.73309      166.72623     -6.6603466    
   1930000   303.76347     -2401.3566      803.49011      213.05593      21.949478    
   1935000   298.03589     -2421.2241      812.07191      167.62452      16.937724    
   1940000   309.14208     -2405.2004      807.09608      244.88329      13.735767    
   1945000   298.12637     -2411.0407      803.06557      169.34106      12.363309    
   1950000   301.98234     -2414.3096      766.66496      152.65938      4.8465352    
   1955000   305.14658     -2394.1856      844.38189      269.36424     -6.4437106    
   1960000   306.20225     -2393.6907      829.30416      261.0749       5.0062841    
   1965000   297.49031     -2371.9234      830.33003      231.93081      7.320879     
   1970000   298.38846     -2435.951       826.94453      169.87211      2.8919308    
   1975000   303.14665     -2423.5415      801.11451      184.81818      4.300002     
   1980000   307.57858     -2391.8386      786.45093      228.27902     -12.585805    
   1985000   296.01218     -2433.1686      783.63601      115.17954      12.536682    
   1990000   299.22919     -2382.3291      795.68301      197.2446      -3.9652032    
   1995000   297.91859     -2420.7591      831.77322      187.0916      -15.356025    
   2000000   296.5472      -2397.7152      832.59672      202.7833      -17.059813    
   2005000   304.16806     -2379.4987      817.99754      251.83324     -0.41747228   
   2010000   296.67984     -2395.5317      802.68021      175.84102      29.315606    
   2015000   309.2181      -2397.5958      813.44376      259.28877     -2.0650015    
   2020000   300.62585     -2398.8896      770.13345      163.46092     -8.4616843    
   2025000   296.73637     -2392.1961      839.70222      216.53565      6.9599941    
   2030000   308.60666     -2424.1584      793.53896      209.17628     -16.791686    
   2035000   302.3653      -2415.6811      832.95667      219.8626       0.39967109   
   2040000   300.62786     -2403.5665      825.46225      214.12489     -0.79708124   
   2045000   298.77273     -2375.8739      833.23258      238.52822      38.852845    
   2050000   299.39864     -2422.5398      820.65087      183.01197     -4.573929     
   2055000   296.91444     -2429.917       773.04004      113.21411     -8.7678086    
   2060000   305.90162     -2402.6531      816.49189      237.50802      3.9206902    
   2065000   292.96861     -2394.0495      840.19768      192.71573     -12.663612    
   2070000   306.27541     -2394.9352      814.97678      245.93924     -6.5110109    
   2075000   303.86904     -2419.7807      845.64856      237.41965     -8.2234915    
   2080000   300.29448     -2388.9876      866.57768      267.83167      13.659546    
   2085000   301.45857     -2412.5825      796.40812      181.00708     -20.858867    
   2090000   298.38618     -2426.8809      804.95275      156.93685      2.5306624    
   2095000   312.37296     -2434.4532      792.58639      220.38207      15.696047    
   2100000   297.27983     -2421.4709      821.20872      172.00727      0.53749843   
   2105000   296.20725     -2429.5956      862.35569      198.63525     -19.343123    
   2110000   294.30405     -2448.6205      806.53943      112.44793      10.279219    
   2115000   304.45931     -2433.7786      822.3545       203.6467      -28.304395    
   2120000   300.18532     -2433.6007      844.82075      200.81094     -27.617632    
   2125000   302.49775     -2426.6627      844.03316      220.74711     -11.662586    
   2130000   291.44903     -2439.2288      805.32537      103.60495     -4.8224592    
   2135000   304.00634     -2434.8237      842.08872      219.63535      0.83031294   
   2140000   296.01342     -2454.7006      774.8397       84.858649     -4.2581193    
   2145000   301.34833     -2450.9849      815.59574      161.13505      28.370697    
   2150000   304.56088     -2459.7263      802.47401      158.42399     -6.3591706    
   2155000   299.89458     -2426.5444      764.72766      126.04088      11.928348    
   2160000   307.40264     -2419.8969      787.21323      199.93411     -10.155539    
   2165000   288.78988     -2428.2607      827.92442      121.3193      -4.8420729    
   2170000   299.92733     -2436.4907      792.24358      143.80567     -10.077148    
   2175000   297.73448     -2444.4677      841.1542       171.66635      1.5242251    
   2180000   299.72704     -2441.3807      786.49863      131.97673     -9.5183672    
   2185000   297.96607     -2432.0285      836.87527      181.20726     -12.908619    
   2190000   301.73468     -2408.279       823.66387      214.2124       1.5504661    
   2195000   299.1608      -2422.4459      816.91657      177.9537       2.206911     
   2200000   294.12143     -2391.69        792.70542      154.45566     -0.51991667   
   2205000   307.8811      -2397.0259      807.28437      245.72864     -4.8888421    
   2210000   293.37338     -2396.5015      836.09536      188.57444     -2.5313004    
   2215000   298.84375     -2395.4291      795.69111      181.85493      12.554513    
   2220000   294.10167     -2395.0564      842.44614      200.71218     -13.614114    
   2225000   294.49528     -2404.1308      819.2067       170.74488     -5.0082724    
   2230000   293.4978      -2340.526       772.16974      181.36612     -6.3965898    
   2235000   297.35142     -2382.6392      825.26306      215.3201      -12.934781    
   2240000   297.86216     -2396.464       816.29082      195.56783     -2.4743977    
   2245000   293.64972     -2388.0502      794.70528      157.2831       2.1135898    
   2250000   296.75859     -2425.1239      803.98053      148.01863      16.23112     
   2255000   292.44213     -2444.7767      844.94722      143.5994      -19.067104    
   2260000   296.85972     -2427.6798      805.43077      147.51582     -1.1479648    
   2265000   293.04884     -2428.9647      826.02239      144.10352      30.136312    
   2270000   296.29467     -2436.7738      795.54051      125.16302      4.8024613    
   2275000   304.92024     -2437.5003      821.53259      201.85097      6.5031279    
   2280000   304.22671     -2458.9248      800.59727      155.35647     -14.056584    
   2285000   305.02547     -2447.6499      801.97408      172.7702      -3.7458127    
   2290000   310.63288     -2446.9984      818.10189      222.97868      24.767696    
   2295000   292.64291     -2403.4314      793.40084      134.59532     -6.6120835    
   2300000   297.34051     -2408.5834      811.57996      175.62769      3.8462112    
   2305000   303.30948     -2400.625       807.73829      215.32916      20.566826    
   2310000   303.78085     -2390.2481      798.96648      219.74446     -12.976486    
   2315000   301.98797     -2392.0591      824.99996      233.27841     -0.5574668    
   2320000   305.93729     -2428.1307      791.48145      187.2327       13.638362    
   2325000   314.17024     -2415.2816      825.73218      283.41423      20.008246    
   2330000   307.48285     -2426.9399      815.62957      221.78559      3.6856475    
   2335000   299.14138     -2423.8924      772.23383      131.70869      0.25101693   
   2340000   306.06099     -2398.0299      820.06672      246.65612      3.3307215    
   2345000   307.84484     -2411.7112      813.36005      236.9029      -2.2193402    
   2350000   295.22164     -2410.287       835.00001      184.71224     -24.585213    
   2355000   303.56713     -2367.7825      841.41625      283.38565      2.6746137    
   2360000   296.2954      -2405.1169      801.20825      162.49196     -1.3088034    
   2365000   301.24477     -2411.4787      810.60846      195.03669     -12.152132    
   2370000   298.79261     -2398.2802      789.16845      172.17628      27.538062    
   2375000   299.41171     -2382.2355      798.67959      201.42291     -18.515529    
   2380000   294.72876     -2407.2689      828.06048      177.8525       19.30962     
   2385000   292.73862     -2428.4085      791.65698      108.4449       6.0233653    
   2390000   300.01909     -2398.7514      785.10929      174.95768     -2.3785176    
   2395000   303.14165     -2420.0564      789.63571      176.79466      7.3976516    
   2400000   307.97397     -2419.5148      816.98626      233.49527      7.4733358    
   2405000   304.51874     -2440.8186      780.0661       154.67257     -1.5486108    
   2410000   296.73397     -2415.6096      799.46349      152.86914      11.865817    
   2415000   308.15838     -2441.4679      853.0854       248.74062      15.517668    
   2420000   301.24301     -2442.5768      832.47299      185.79258     -5.7615533    
   2425000   292.62378     -2446.5481      796.21503      94.178783     -18.322313    
   2430000   298.31577     -2445.4256      851.09422      184.11391     -1.2913147    
   2435000   305.19967     -2494.4032      832.57778      157.65904     -5.638392     
   2440000   299.64744     -2464.6813      847.53047      169.23341      19.743577    
   2445000   295.95563     -2428.5566      826.05855      161.87702      12.116289    
   2450000   296.35938     -2454.5116      794.92248      107.19294      16.286595    
   2455000   305.23361     -2458.0858      769.49798      131.09902     -23.199271    
   2460000   301.79298     -2440.4356      799.25596      157.99552      7.3108652    
   2465000   299.03233     -2425.8676      778.73375      135.58325      2.0331921    
   2470000   308.82575     -2428.767       861.33212      273.66689      21.963283    
   2475000   301.87398     -2425.5895      813.20945      187.27793      7.2395194    
   2480000   295.94181     -2437.0573      822.09008      149.32548      10.650044    
   2485000   302.71519     -2457.7767      853.21961      200.11581      16.988366    
   2490000   297.71399     -2387.6206      815.30202      202.53916      6.264341     
   2495000   311.73858     -2435.5802      825.3779       248.26464      24.384427    
   2500000   299.88932     -2405.6732      823.85954      206.01256      8.210089     
   2505000   296.97538     -2417.3178      825.27116      178.40771     -4.4690138    
   2510000   292.43376     -2410.1452      831.03614      164.26993      12.792089    
   2515000   311.82082     -2412.2584      805.96132      252.66018     -1.0928349    
   2520000   300.88635     -2421.9378      858.22298      230.05525     -3.2421052    
   2525000   297.54852     -2375.7128      776.24924      174.40774     -17.054584    
   2530000   299.51143     -2398.2931      799.24146      186.52168     -8.166095     
   2535000   303.31038     -2390.619       825.85142      243.45367      4.6754012    
   2540000   290.51931     -2378.8597      836.13454      189.24057     -0.33333935   
   2545000   301.21635     -2389.7411      868.46492      274.46126     -0.76806098   
   2550000   300.98544     -2374.9826      790.91952      210.29775     -0.2394344    
   2555000   300.00137     -2390.6852      820.68064      218.48963     -10.314139    
   2560000   286.5516      -2399.8536      842.92237      151.38052      9.2802068    
   2565000   304.74501     -2369.8534      804.65894      251.57957     -8.0304375    
   2570000   305.01015     -2361.9064      806.27898      262.72718      0.25588802   
   2575000   296.98723     -2377.3374      876.15775      269.34536     -12.446084    
   2580000   309.92995     -2349.3015      836.54196      334.92503      0.84371859   
   2585000   294.50807     -2363.821       788.11944      180.04372      5.8427238    
   2590000   305.02975     -2377.0936      826.84477      268.22273     -24.801501    
   2595000   291.79541     -2385.9148      853.29161      206.95016      5.1664775    
   2600000   302.27127     -2351.124       809.52901      260.43156     -21.299761    
   2605000   302.707       -2363.9193      802.97066      243.67551     -15.175383    
   2610000   297.58872     -2366.5056      837.30331      244.90859      2.4974702    
   2615000   305.03052     -2399.3864      802.12135      221.21102      10.45009     
   2620000   295.34826     -2381.1884      837.68174      217.24745      5.3236032    
   2625000   296.1012      -2410.9763      837.33772      191.60428     -7.8826817    
   2630000   303.73113     -2401.0255      788.037        197.74111     -6.6404415    
   2635000   302.35895     -2441.4477      821.76825      182.86978      21.335499    
   2640000   296.88205     -2417.5715      788.5632       140.8897      -5.0219378    
   2645000   294.64147     -2410.5291      838.75511      184.76651     -5.7912316    
   2650000   300.84048     -2415.5157      769.39494      147.37594      10.611889    
   2655000   305.99946     -2378.0353      792.41464      238.63188      21.510759    
   2660000   304.29301     -2389.3857      801.19098      225.88459     -9.8716395    
   2665000   304.10044     -2406.5672      833.83679      240.20083      9.796045     
   2670000   304.94005     -2377.1445      849.7661       290.55835      16.080283    
   2675000   310.60272     -2388.663       858.01815      321.05054      26.197058    
   2680000   295.76643     -2406.128       787.82368      144.94277     -4.062118     
   2685000   302.74308     -2426.3469      817.9595       196.45188     -12.068895    
   2690000   300.27809     -2451.9049      814.26916      152.50821      7.6761689    
   2695000   297.19047     -2433.0206      802.76637      141.48244     -7.0588207    
   2700000   292.62546     -2408.2949      846.8959       183.12281     -4.6380642    
   2705000   299.89574     -2399.3086      798.18954      186.74544      12.242568    
   2710000   302.18347     -2401.43        838.84912      238.92217      7.755095     
   2715000   288.50873     -2394.1514      793.64129      119.46926      8.4386271    
   2720000   293.4989      -2400.3624      846.17561      195.54215      11.712086    
   2725000   299.55659     -2397.4207      847.12001      235.54195     -3.8706166    
   2730000   288.39507     -2400.9485      814.25333      132.60669     -11.350466    
   2735000   296.32978     -2414.7338      826.5596       178.43133     -17.97754     
   2740000   301.54713     -2420.0895      784.03488      161.65478      17.943215    
   2745000   296.57265     -2415.5075      844.52749      197.07348     -19.050197    
   2750000   300.84082     -2408.1644      861.69141      247.02566      1.4588923    
   2755000   306.58987     -2381.0401      832.86722      279.59943      7.1503297    
   2760000   312.08204     -2411.1323      815.44943      264.83166      0.12863938   
   2765000   294.89875     -2405.2156      842.57236      195.43101     -10.773398    
   2770000   307.92373     -2413.8604      779.68405      201.54798      2.6379261    
   2775000   291.98888     -2405.6487      840.71674      175.79482     -7.2028136    
   2780000   310.96341     -2397.7165      813.97983      270.10906      3.7919372    
   2785000   287.19441     -2379.4828      828.98531      161.64648     -2.2060585    
   2790000   303.88004     -2389.0325      820.61631      243.20116     -6.1430083    
   2795000   301.15532     -2380.9071      802.03064      216.49714      2.293141     
   2800000   302.80556     -2369.5163      813.84171      249.53705     -8.0443602    
   2805000   298.66935     -2387.2221      842.01888      235.34993     -18.9553      
   2810000   297.01874     -2378.024       838.09968      230.78855      7.0254403    
   2815000   298.30638     -2393.1441      792.00801      177.2532      -17.722705    
   2820000   305.67447     -2379.6876      832.86043      275.48791     -7.2630723    
   2825000   296.20394     -2383.6419      793.57062      175.7841      -17.708829    
   2830000   293.26067     -2363.67        815.24404      199.88276     -12.980931    
   2835000   301.57296     -2379.3868      820.68823      239.16483      14.074501    
   2840000   289.9321      -2427.1991      799.24905      100.51497     -3.7494594    
   2845000   299.00259     -2386.1835      813.06869      209.42498     -29.275646    
   2850000   306.45689     -2389.9184      843.54002      280.60117      9.4612729    
   2855000   303.50796     -2368.1719      825.45955      266.68681     -3.8248627    
   2860000   290.69177     -2371.3096      824.64371      186.32796      3.2996169    
   2865000   297.14226     -2399.8015      812.92367      184.5715      -2.4733874    
   2870000   298.33332     -2384.6208      827.58637      221.51555      12.198259    
   2875000   307.03696     -2382.6059      764.91442      212.74622     -12.832099    
   2880000   297.45546     -2380.9613      798.59972      190.95485     -3.8905555    
   2885000   300.23157     -2384.2947      830.45907      236.03091     -7.0329099    
   2890000   294.72593     -2384.5212      779.83353      152.35633     -5.2686592    
   2895000   300.1787      -2415.499       798.41097      172.46339      11.688789    
   2900000   299.58645     -2381.7026      826.93391      231.25187     -22.168941    
   2905000   307.01125     -2392.6549      856.24462      293.87421     -3.3948988    
   2910000   294.37745     -2401.3403      823.93216      177.5584      -4.7590556    
   2915000   293.62596     -2393.1469      817.15716      174.49668      13.84245     
   2920000   289.49884     -2403.6922      830.81678      153.00668     -19.211542    
   2925000   299.59602     -2370.1554      817.78288      233.70511     -17.17959     
   2930000   303.60507     -2400.2822      794.18094      203.87688     -3.2484958    
   2935000   299.21068     -2359.4837      820.51916      244.81592     -25.028717    
   2940000   293.48511     -2390.5842      807.68515      166.74772     -8.5330872    
   2945000   296.73442     -2408.0371      813.89732      174.87809      1.9751948    
   2950000   299.22225     -2392.3713      803.10324      194.5813      -18.886498    
   2955000   291.08508     -2394.246       832.38718      173.47986      3.2234376    
   2960000   303.7228      -2399.2017      800.44855      211.92674     -12.185634    
   2965000   295.44007     -2429.9625      816.27818      147.61712      1.9713441    
   2970000   304.67083     -2428.462       842.06795      229.9377       12.174139    
   2975000   299.38313     -2439.854       830.51457      175.46903     -10.084926    
   2980000   299.56223     -2429.5284      878.77947      235.12727      8.865892     
   2985000   289.20739     -2461.2845      797.07877      59.938876     -9.617492     
   2990000   301.71974     -2485.6703      857.05605      170.12425      5.0666716    
   2995000   299.65908     -2450.9643      821.54988      157.03918      7.0196799    
   3000000   302.26295     -2446.1309      789.94595      145.79188      4.4531728    
   3005000   305.32096     -2430.2789      794.96647      184.89514      20.083805    
   3010000   306.8441      -2478.4991      791.5501       142.33895      15.853902    
   3015000   287.28954     -2480.4131      822.10164      54.399573     -13.854009    
   3020000   291.14986     -2488.4415      823.43442      70.717727     -15.606614    
   3025000   303.40271     -2479.7335      791.82298      120.86116      13.715929    
   3030000   308.43359     -2486.9642      811.35611      163.15577      28.793562    
   3035000   309.28268     -2462.3149      814.79692      196.3079       8.0029984    
   3040000   297.74628     -2495.6653      824.64112      104.02603      7.5601553    
   3045000   294.931       -2464.8336      789.61563      83.048611     -10.420911    
   3050000   294.48147     -2464.0442      841.68818      133.23069     -5.2446184    
   3055000   305.04276     -2449.8251      825.16443      193.88839     -0.5226302    
   3060000   293.55619     -2465.5215      825.31053      109.8595      -12.915205    
   3065000   298.82368     -2456.5627      823.88209      148.79269     -5.7168533    
   3070000   295.64898     -2442.5635      792.3363       112.31971     -10.635485    
   3075000   305.57373     -2457.8991      787.76651      151.58186      28.130369    
   3080000   298.85284     -2446.3032      774.66655      110.01049      5.5560832    
   3085000   293.25868     -2441.2691      812.08708      119.1148       0.021721407  
   3090000   310.26879     -2425.7407      766.04199      190.00591      6.1859997    
   3095000   303.74551     -2423.2964      813.75114      201.27007     -1.4956352    
   3100000   308.67909     -2427.3369      854.80292      267.69341      21.950019    
   3105000   297.34182     -2401.2049      830.61966      202.05373      8.929698     
   3110000   296.35452     -2406.6378      820.57033      180.68555     -17.8143      
   3115000   304.1025      -2406.1582      819.03464      225.82007      22.357596    
   3120000   306.8188      -2389.7792      817.68973      257.04765     -15.578646    
   3125000   300.17764     -2381.6866      799.77604      207.63451      1.5233543    
   3130000   309.44869     -2318.1475      828.12236      354.79045      27.216266    
   3135000   309.52391     -2350.2478      835.29685      330.31296     -26.173861    
   3140000   297.22607     -2348.8316      831.23428      254.35164      25.863608    
   3145000   299.23305     -2336.2766      812.76775      260.40488      5.3944355    
   3150000   288.201       -2324.2926      831.68529      225.53753     -11.056443    
   3155000   300.84759     -2363.3166      808.10984      238.33224      11.843261    
   3160000   291.4523      -2355.9073      850.96965      232.59027      17.229542    
   3165000   293.25834     -2354.0261      805.88503      200.15376     -6.2134628    
   3170000   307.15086     -2397.0321      830.32778      264.41243      10.342358    
   3175000   303.63205     -2376.7744      818.99795      252.36244      14.306154    
   3180000   299.01904     -2359.5519      800.01423      223.10019      8.5498168    
   3185000   297.84169     -2402.4227      809.27516      182.47148      28.268837    
   3190000   298.23702     -2353.6391      806.97983      231.31654      5.9094366    
   3195000   306.33806     -2382.2831      813.95845      257.94648     -4.6006156    
   3200000   297.2047      -2338.501       807.71677      241.03734     -4.7474403    
   3205000   304.43295     -2376.2649      785.37709      224.02578      7.0740614    
   3210000   301.65273     -2386.185       820.8616       233.01557      4.7808314    
   3215000   300.62015     -2392.8513      820.25344      219.58525     -23.127052    
   3220000   296.57739     -2375.7187      843.01646      235.37944      7.7244833    
   3225000   300.56704     -2386.6129      859.16408      264.41763      9.2314379    
   3230000   303.55683     -2385.6295      807.39517      231.45615     -1.8788387    
   3235000   298.68169     -2374.7608      800.58553      206.45153     -21.385461    
   3240000   297.70767     -2396.413       817.00356      195.41054     -13.329287    
   3245000   296.93657     -2418.1831      834.67507      186.715        17.772353    
   3250000   304.71606     -2446.2504      805.55078      175.90172     -11.648286    
   3255000   305.02218     -2399.0491      831.46731      250.84455      31.043137    
   3260000   292.96051     -2393.6082      802.04842      154.95946      10.159253    
   3265000   295.5459      -2386.7131      828.2143       203.43362     -32.794463    
   3270000   312.82268     -2382.1915      841.21834      323.95678     -19.803844    
   3275000   294.23321     -2372.3838      814.18435      195.90723      27.935578    
   3280000   298.90927     -2338.1235      791.9838       235.8438      -11.651394    
   3285000   294.37959     -2349.1781      805.19547      210.99666      5.6853018    
   3290000   300.19678     -2366.5661      808.98118      232.07424     -6.0661585    
   3295000   294.97067     -2367.0657      814.3913       205.82868     -6.9258646    
   3300000   292.77224     -2324.2191      832.72455      253.90233     -16.671751    
   3305000   300.8305      -2341.2694      848.8229       300.99073      0.68180539   
   3310000   302.24462     -2349.0228      815.60747      268.4523       2.5699097    
   3315000   294.19386     -2336.286       813.88714      231.47316     -0.37481827   
   3320000   307.96517     -2319.5708      790.17717      306.5777      -3.6594858    
   3325000   299.29992     -2303.1921      796.55672      277.67706      21.416537    
   3330000   291.91288     -2314.2049      803.44514      229.51397      0.26644837   
   3335000   298.61747     -2320.8572      827.67017      287.05686     -8.0736367    
   3340000   302.19159     -2280.6358      829.95208      350.86771     -2.1352151    
   3345000   298.73149     -2295.4635      812.19115      297.65133     -12.102192    
   3350000   307.01842     -2290.5986      809.9371       349.66564      13.099804    
   3355000   304.79531     -2277.1823      853.40337      393.29491      17.438534    
   3360000   295.2888      -2269.3454      803.77879      294.83299     -10.629433    
   3365000   300.49268     -2295.514       823.06973      318.9789      -11.332577    
   3370000   306.4783      -2262.0015      872.70948      437.81515      3.0466083    
   3375000   303.26809     -2260.5379      776.39271      323.82398     -1.1174504    
   3380000   290.79001     -2271.3563      826.00067      288.22391     -2.9968702    
   3385000   303.56954     -2233.6726      822.23256      398.32617      4.3038772    
   3390000   293.59441     -2250.457       813.6614       313.50277      4.1731521    
   3395000   301.77861     -2236.2271      817.69131      380.55366     -17.295497    
   3400000   293.32754     -2250.6187      826.38934      324.47795     -10.894404    
   3405000   302.52732     -2247.1204      838.0759       394.50847     -3.0301217    
   3410000   300.23618     -2254.8922      827.64249      362.6444      -4.0790548    
   3415000   288.22121     -2251.3833      841.20945      308.09152      12.57323     
   3420000   291.50578     -2251.7382      842.18503      328.29354     -1.6493357    
   3425000   301.86243     -2261.312       775.68449      313.96157     -9.4499289    
   3430000   301.77596     -2247.4583      791.81342      343.4288       17.00179     
   3435000   290.41051     -2278.518       834.55644      287.35554     -1.7700159    
   3440000   298.99793     -2275.5145      856.11057      363.1082      -18.265873    
   3445000   299.36849     -2297.906       819.94758      306.7628      -4.2188755    
   3450000   296.08643     -2271.9748      830.32456      323.5046       7.5957413    
   3455000   291.84316     -2255.5801      811.64503      295.92301      1.9793529    
   3460000   293.3033      -2254.7813      827.93711      321.71872     -3.7363862    
   3465000   303.73597     -2287.8978      841.58324      364.44384     -2.5375743    
   3470000   298.99213     -2290.2656      794.19675      286.40869     -0.83539335   
   3475000   285.6128      -2278.4513      778.48107      202.74474      1.2846373    
   3480000   293.30128     -2312.1962      851.24633      287.60089     -9.2112301    
   3485000   297.13622     -2296.9233      797.29217      271.78213      11.552536    
   3490000   297.28402     -2288.9617      785.16179      268.49447     -2.8200227    
   3495000   297.20894     -2308.6463      830.36609      293.56658      13.55332     
   3500000   291.82516     -2312.988       797.03119      223.79395      1.0131145    
   3505000   290.49636     -2322.1199      836.01206      245.72109     -6.0056706    
   3510000   306.48483     -2320.21        786.11934      293.05544      11.286625    
   3515000   292.24838     -2293.9627      767.86622      216.17739     -12.285011    
   3520000   297.16133     -2268.4281      854.16257      357.29744      5.1542565    
   3525000   309.68218     -2277.311       822.0882       390.98464     -0.96559754   
   3530000   297.45991     -2281.8381      834.8114       326.31623     -0.18795442   
   3535000   300.10444     -2298.4439      812.79886      303.46366     -7.0468764    
   3540000   297.08994     -2272.5864      821.46863      320.01961     -3.1879863    
   3545000   285.92102     -2281.3385      812.82161      236.03561     -4.4930668    
   3550000   310.39309     -2298.8312      822.82649      374.44096     -2.1611501    
   3555000   299.32665     -2297.4996      799.26999      286.24218     -8.7460212    
   3560000   308.84409     -2316.4436      807.31752      332.08499     -18.791027    
   3565000   300.12221     -2307.4737      776.49751      258.23843     -14.048474    
   3570000   290.36529     -2294.4925      794.68249      231.23762     -1.0769774    
   3575000   306.10207     -2289.4443      838.52618      373.94608     -6.5938406    
   3580000   301.84515     -2280.9164      836.63514      355.20482     -11.343215    
   3585000   301.83657     -2322.411       793.03927      270.06321      26.898103    
   3590000   296.8614      -2304.8128      833.31647      298.27857      34.562268    
   3595000   294.97825     -2310.2266      828.82092      277.14256      6.8065679    
   3600000   298.47932     -2322.8403      816.42391      273.00393     -8.0120665    
   3605000   294.53539     -2318.7144      871.09946      308.29313      13.818576    
   3610000   289.596       -2312.0046      815.95945      230.41621      13.296808    
   3615000   305.60908     -2340.6509      775.45296      256.72727     -10.504732    
   3620000   294.42883     -2319.3045      829.66862      265.6369      -12.084394    
   3625000   295.72419     -2340.8437      833.65938      255.81095      11.235051    
   3630000   303.54513     -2353.4698      820.12296      276.27394     -5.8685842    
   3635000   277.19811     -2334.4699      797.53705      115.61695      9.7415133    
   3640000   308.67267     -2353.2931      805.22646      292.12251      11.166674    
   3645000   297.41747     -2330.9357      820.26113      262.41536      14.224455    
   3650000   295.55004     -2349.8032      774.94942      187.10324      14.414786    
   3655000   297.87068     -2358.514       790.91759      208.19542     -5.7153066    
   3660000   306.63605     -2362.0569      804.87049      270.86126     -9.9192258    
   3665000   300.89465     -2352.0219      805.72585      247.52355      23.151369    
   3670000   295.93085     -2357.3497      795.21615      202.09372     -1.611187     
   3675000   292.94158     -2423.2032      821.42276      144.62602      1.0262087    
   3680000   309.135       -2423.8857      831.82324      250.88297      18.663481    
   3685000   307.03026     -2435.6012      774.63552      169.43211      7.9815949    
   3690000   303.79777     -2410.303       790.01201      190.83587     -3.5820577    
   3695000   314.12385     -2414.1579      803.73238      262.26155      9.3687181    
   3700000   302.91712     -2402.9878      832.32162      235.21059      7.7530716    
   3705000   296.35653     -2397.9266      805.58484      174.42326      13.181976    
   3710000   291.53793     -2379.2816      792.92299      151.67976     -11.711791    
   3715000   304.35331     -2385.6688      803.00884      231.7789      -9.6828175    
   3720000   298.15451     -2391.0384      812.62808      199.07359     -6.90916      
   3725000   295.01887     -2421.467       818.85575      156.17915     -17.088022    
   3730000   294.28011     -2421.1824      850.87137      184.07517     -10.906769    
   3735000   297.20608     -2403.0666      832.84257      201.60577     -5.7874229    
   3740000   282.43153     -2354.2769      775.68925      105.16187      2.8082804    
   3745000   301.87823     -2381.7982      834.95653      252.84167     -0.86524673   
   3750000   305.07487     -2361.4483      787.33287      244.62508      3.662959     
   3755000   296.63604     -2361.0904      802.13575      209.47677      4.9271141    
   3760000   298.95984     -2354.6614      831.82795      259.45153      0.13429561   
   3765000   297.7619      -2357.1685      802.31114      220.28596      3.4709451    
   3770000   293.91229     -2353.6053      787.98184      186.56994      2.2766735    
   3775000   303.09958     -2372.1108      804.43209      239.28589      4.0648596    
   3780000   310.01065     -2399.5584      797.706        246.31327     -9.8350065    
   3785000   301.30206     -2393.2497      835.37913      238.3778       14.242611    
   3790000   298.4702      -2375.9262      831.1745       234.61423      17.734627    
   3795000   300.57256     -2403.2903      849.36074      237.96986      2.3397537    
   3800000   298.42122     -2379.4738      819.14555      218.74571     -21.924775    
   3805000   301.56526     -2375.3567      824.36424      246.82505     -3.9679768    
   3810000   306.64303     -2366.3421      812.52982      274.27699     -20.516607    
   3815000   299.1004      -2357.4395      808.0278       233.71124     -17.289091    
   3820000   300.56534     -2383.2802      806.53438      215.11056      10.634889    
   3825000   303.98254     -2365.4848      831.08729      277.83095      13.654061    
   3830000   307.78615     -2365.6033      809.76108      279.06188      3.8394057    
   3835000   301.36407     -2389.5332      798.7374       205.8223      -7.3651265    
   3840000   300.725       -2421.4457      773.27956      144.64203      8.8249717    
   3845000   304.25483     -2401.8254      771.26619      183.29249      14.706708    
   3850000   283.81693     -2400.4424      828.67644      120.24278     -5.4854513    
   3855000   295.24682     -2388.3512      826.03073      197.82889     -22.252844    
   3860000   295.64108     -2372.6341      796.05085      185.91656     -19.134263    
   3865000   301.9369      -2362.038       794.81812      232.8132      -8.8292826    
   3870000   295.25305     -2388.2038      823.1054       195.08814      6.3854405    
   3875000   302.2914      -2365.9165      817.6935       253.92353      2.8065533    
   3880000   309.84128     -2374.4403      782.77678      255.4925       5.1670921    
   3885000   309.55362     -2383.9168      803.4391       264.96341      2.5537989    
   3890000   292.57644     -2375.188       815.12838      184.16997     -4.2067649    
   3895000   299.80631     -2395.9756      832.93117      224.28685      6.1146817    
   3900000   289.40676     -2398.0611      851.84007      179.11213      17.397408    
   3905000   310.30601     -2411.1769      835.2115       273.96115      8.802884     
   3910000   304.39516     -2411.5719      807.42793      210.54437     -0.74093116   
   3915000   306.50555     -2405.4899      828.5175       250.29722      8.6087332    
   3920000   309.3301      -2397.3309      785.44055      232.21821     -0.99221541   
   3925000   297.06564     -2381.7472      789.29098      178.53624      7.010277     
   3930000   308.174       -2371.7095      800.47922      265.98599     -8.621963     
   3935000   303.60117     -2363.4642      805.44816      251.93878      5.8804367    
   3940000   304.14078     -2347.1609      796.80342      262.81432      40.768477    
   3945000   299.83497     -2371.6028      812.02644      227.92582      10.262642    
   3950000   306.64555     -2360.4558      786.27115      253.91964      0.73977863   
   3955000   313.53313     -2350.0222      834.32372      353.46695     -0.52626502   
   3960000   305.57166     -2320.8772      795.62862      296.45358     -12.04859     
   3965000   289.58011     -2345.2238      811.48535      192.62819     -26.088635    
   3970000   305.00705     -2388.9846      791.97234      221.32391     -1.693527     
   3975000   303.42379     -2362.7057      789.72811      235.91974      11.459721    
   3980000   298.73189     -2345.231       809.73615      245.43122      2.0835133    
   3985000   306.40728     -2357.5313      791.34819      260.50069      0.7250746    
   3990000   298.04012     -2375.562       816.11958      217.35957     -4.655416     
   3995000   297.65158     -2347.3355      853.49993      280.65004      19.454521    
   4000000   291.24922     -2420.594       813.36261      129.08583      8.9059199    
   4005000   303.63725     -2356.9139      767.55855      220.81458      9.0498517    
   4010000   301.66804     -2359.7813      816.32112      254.97009      3.7612985    
   4015000   299.04372     -2375.6829      817.14779      224.24993     -2.6493593    
   4020000   292.35329     -2358.9801      805.45296      189.37205     -9.0631793    
   4025000   310.48109     -2397.3161      783.27637      236.93057      12.912186    
   4030000   301.72464     -2370.3255      784.14537      212.58761      30.864108    
   4035000   297.14255     -2374.6126      856.49687      253.33529     -10.004603    
   4040000   297.97167     -2383.3544      840.72869      233.76815     -0.41315969   
   4045000   297.76491     -2390.1252      788.12577      173.16185      2.0870718    
   4050000   297.36686     -2340.6777      762.86506      194.97559      20.230592    
   4055000   305.49244     -2395.14        820.18895      246.27884     -7.8949153    
   4060000   305.03103     -2399.0839      807.95727      227.35248     -7.990764     
   4065000   303.51053     -2360.183       795.42456      244.65606      1.846052     
   4070000   306.55603     -2374.5271      843.98528      297.02877     -7.1301349    
   4075000   306.74956     -2351.3519      815.20808      292.58048      7.7982386    
   4080000   309.41205     -2353.7029      824.83852      315.73268      14.370219    
   4085000   305.45067     -2349.8927      809.26448      280.3527       16.83149     
   4090000   292.97891     -2339.1242      796.93286      204.43764     -21.134641    
   4095000   297.21676     -2353.4123      835.67721      254.15825      13.43491     
   4100000   294.86177     -2358.7805      806.14608      205.21939      5.1918064    
   4105000   308.28066     -2358.5763      791.57073      270.84657      9.9802999    
   4110000   291.79265     -2361.733       786.88515      164.70907      4.345345     
   4115000   301.22093     -2387.7237      787.7031       195.74421      0.45274745   
   4120000   296.99955     -2371.2712      804.23674      203.56396     -9.6449394    
   4125000   303.31455     -2393.4299      822.62608      237.44227      28.028457    
   4130000   301.87316     -2404.3766      837.7342       233.01071     -10.177303    
   4135000   297.13921     -2388.0148      812.88379      196.30009     -0.65977805   
   4140000   298.42714     -2354.7464      812.47531      236.83816     -3.2875982    
   4145000   296.25092     -2371.7052      828.21203      222.64232     -25.335308    
   4150000   299.41206     -2371.5054      808.14879      221.62441     -0.75401537   
   4155000   299.54948     -2393.3198      799.23325      191.71359      1.948101     
   4160000   296.56676     -2388.3114      823.80393      203.51095     -5.0108462    
   4165000   308.7699      -2378.9284      843.14714      304.98753      3.7153134    
   4170000   294.57867     -2359.2967      836.15359      233.02302      11.283717    
   4175000   304.40796     -2356.7916      812.39093      270.3639      -16.810183    
   4180000   303.00933     -2355.7724      853.50752      304.16166     -3.3696133    
   4185000   295.33668     -2363.7107      814.44875      211.42315      17.03332     
   4190000   291.17111     -2366.046       809.12898      178.93457      9.7563883    
   4195000   302.0043      -2382.4612      841.571        259.54473     -3.315305     
   4200000   306.98731     -2369.1645      858.85087      319.82814     -3.5261964    
   4205000   309.33193     -2331.3668      791.07371      303.82633     -21.20797     
   4210000   295.64373     -2371.6829      796.30625      187.1389       19.042341    
   4215000   300.86385     -2352.3302      832.25503      273.56077     -10.469004    
   4220000   292.30235     -2370.1763      820.83955      193.25887     -21.274773    
   4225000   291.89397     -2375.0311      832.68559      197.81539      7.6020079    
   4230000   309.51372     -2380.8956      789.45823      253.76582     -1.289862     
   4235000   311.17388     -2398.2754      836.53966      293.36475     -2.8925984    
   4240000   308.84159     -2403.914       811.97331      249.25551      12.543258    
   4245000   309.20224     -2405.0578      844.12174      282.41019      29.103127    
   4250000   306.91408     -2391.4924      808.2434       246.45611     -12.463938    
   4255000   301.3321      -2395.8166      817.21182      217.82274      10.307271    
   4260000   305.50482     -2394.4199      847.4949       274.37864     -4.2049025    
   4265000   295.3609      -2384.4946      815.13979      191.47467     -7.8579744    
   4270000   306.13759     -2376.6175      844.32995      292.78847      13.771494    
   4275000   297.68615     -2368.3063      799.85484      206.24027      18.840282    
   4280000   294.11928     -2347.6454      803.42374      209.20572     -8.7231847    
   4285000   286.1007      -2411.0782      804.78103      99.326504     -27.986069    
   4290000   301.93732     -2393.995       808.53363      214.57418      1.5000414    
   4295000   303.68232     -2392.7089      844.33136      262.0611       8.0242871    
   4300000   303.56494     -2350.3438      806.07075      265.4658       1.7618783    
   4305000   300.48069     -2356.0069      789.92051      225.26536      6.5132933    
   4310000   301.93083     -2354.5882      805.0382       250.44692      19.076549    
   4315000   307.00121     -2360.5555      816.86687      286.53595     -2.2656515    
   4320000   302.38572     -2353.9717      815.38997      264.12705      2.9224987    
   4325000   289.95873     -2337.9764      826.25423      216.90167      8.423541     
   4330000   289.94692     -2327.2914      805.09976      206.36176     -7.9195519    
   4335000   305.57747     -2324.3391      824.08225      321.47992     -0.29371006   
   4340000   300.41689     -2312.8956      837.72157      315.79733     -28.527922    
   4345000   290.51211     -2312.2533      813.34048      233.01001      24.293915    
   4350000   302.01807     -2336.1912      795.03119      259.35695     -0.22277926   
   4355000   307.54342     -2315.0376      806.79201      325.2114       1.0152977    
   4360000   299.80272     -2317.7647      838.60617      308.15133      23.500373    
   4365000   296.03117     -2304.1669      819.39581      280.05427      16.698151    
[...]
  23945000   290.20652     -2407.5523      817.8204       140.36914      34.476168    
  23950000   301.41595     -2404.8651      839.21577      231.27805     -0.99865964   
  23955000   299.45499     -2403.5486      788.50093      170.18922      22.94778     
  23960000   298.94097     -2386.089       842.27489      238.35836      19.098766    
  23965000   307.05522     -2386.3245      813.46378      257.68582      12.830321    
  23970000   296.52436     -2399.7516      784.91241      152.92646     -1.3085819    
  23975000   299.30528     -2376.5322      813.32947      221.14164      8.872199     
  23980000   300.29748     -2378.0493      839.38522      251.59543     -10.363416    
  23985000   299.18496     -2387.4323      816.0364       212.23116     -5.4805843    
  23990000   297.84901     -2339.1829      813.05635      249.53611     -0.11024766   
  23995000   307.56686     -2342.0375      808.31794      299.87716      23.999856    
  24000000   298.54084     -2343.0659      830.53481      267.25599      25.196715    
  24005000   293.82996     -2350.7354      821.01069      221.97793     -14.576536    
  24010000   307.24224     -2398.5638      820.65881      253.75654     -4.7021701    
  24015000   303.23941     -2391.4822      800.52825      216.84425      2.3755566    
  24020000   303.03232     -2371.0736      796.114        231.60396     -6.1067619    
  24025000   295.66052     -2369.5117      775.87637      168.98033     -21.341071    
  24030000   292.73619     -2352.5176      804.70645      197.37084      10.268932    
  24035000   300.319       -2339.3679      828.6881       279.70802     -22.158395    
  24040000   295.92912     -2334.835       808.67065      238.05266     -4.5556309    
  24045000   300.09589     -2331.9098      833.34496      290.49281      0.23853659   
  24050000   299.6205      -2330.2177      812.02683      268.03269      14.367908    
  24055000   299.30635     -2348.5731      785.65936      221.43697      2.320123     
  24060000   303.83533     -2342.5968      797.81518      266.56918      3.1819546    
  24065000   303.82339     -2334.0091      832.03846      309.30895     -5.5294342    
  24070000   301.50059     -2332.5581      851.55832      316.43223      15.631545    
  24075000   299.97064     -2350.1272      808.30228      246.48614      2.5794558    
  24080000   300.89954     -2326.3605      843.52839      311.01665     -1.4166782    
  24085000   308.62649     -2339.1493      861.60702      362.37155     -9.7275484    
  24090000   308.48308     -2349.4904      772.39047      261.95898      10.576909    
  24095000   299.24699     -2336.0451      818.3304       266.28213     -10.017886    
  24100000   299.03085     -2344.6502      817.5228       255.58086      19.860104    
  24105000   295.45133     -2325.735       823.76347      259.39708      9.015517     
  24110000   302.77206     -2317.5637      837.9699       325.4182       5.0349723    
  24115000   309.7831      -2348.3028      875.00684      373.51314      19.717892    
  24120000   303.51121     -2329.3488      808.28585      288.35558      30.00717     
  24125000   288.4622      -2362.866       820.01011      176.8462      -10.590172    
  24130000   298.02746     -2342.0544      815.77254      250.44462      14.073603    
  24135000   297.1036      -2363.9805      859.94567      267.18396      13.963853    
  24140000   304.52416     -2392.1428      808.41816      231.73272      2.5321984    
  24145000   299.35229     -2385.9379      869.70423      268.39096     -13.073683    
  24150000   299.1695      -2399.444       837.47005      221.56094     -3.3792587    
  24155000   308.38608     -2374.887       805.53287      269.12649      3.4026746    
  24160000   301.45745     -2374.5589      808.24321      230.85911     -0.8099804    
  24165000   299.44291     -2375.1131      814.76027      224.81199     -3.9071378    
  24170000   303.42526     -2337.6462      827.49082      298.75077     -4.7303379    
  24175000   290.01173     -2348.0278      790.02125      170.93316      13.72942     
  24180000   298.62441     -2347.4569      778.98403      211.81242      20.142104    
  24185000   301.34038     -2342.2015      802.66758      256.94294      8.7545707    
  24190000   302.90282     -2363.7046      817.78656      259.87345      3.307712     
  24195000   302.03758     -2371.7968      789.47601      218.31253      9.8741737    
  24200000   300.54728     -2338.1549      794.0243       247.61816     -1.1290688    
  24205000   301.13953     -2345.3608      793.97405      243.8927       9.1234095    
  24210000   294.30835     -2350.5743      803.93649      207.91676      37.747538    
  24215000   295.41107     -2362.907       791.13427      189.35587     -0.51939063   
  24220000   298.79766     -2354.3604      847.75084      274.70856      23.852429    
  24225000   305.21566     -2351.9691      820.85844      288.4692       2.7123467    
  24230000   294.87117     -2359.3632      836.34759      234.89429     -1.3598378    
  24235000   295.08705     -2330.2096      822.61134      251.59863     -14.759548    
  24240000   296.07955     -2353.7033      865.42533      276.83584     -4.8495205    
  24245000   293.03705     -2341.305       784.14221      189.81277     -9.9557224    
  24250000   306.32229     -2321.643       844.56619      349.10031      1.3132764    
  24255000   300.1371      -2362.5755      817.46879      244.19671      14.410308    
  24260000   286.91263     -2333.3312      799.24817      176.38102      34.793202    
  24265000   298.48452     -2372.2883      832.77535      239.93833      16.584477    
  24270000   300.2967      -2351.3828      790.23556      229.10762     -4.6352863    
  24275000   296.81482     -2342.4238      812.93426      240.00765      15.576953    
  24280000   313.20844     -2337.9137      826.24281      355.55889      12.214444    
  24285000   302.25526     -2340.0225      798.31324      260.22182      6.2438278    
  24290000   299.30169     -2316.6573      804.4894       272.15508      8.08854      
  24295000   302.13815     -2356.0472      831.61253      276.79822      9.1640635    
  24300000   300.02745     -2345.6445      791.61083      234.61603      20.899114    
  24305000   299.68369     -2355.7015      842.41569      273.31449     -2.3294604    
  24310000   300.39266     -2370.28        782.3222       202.86912     -4.1740072    
  24315000   311.31648     -2355.3681      797.92071      298.50316     -6.0012465    
  24320000   301.50712     -2374.7989      830.94191      253.61398      0.65520879   
  24325000   291.15452     -2384.1643      815.05163      166.63994     -11.641375    
  24330000   304.10514     -2381.8934      812.89484      243.96069      11.306765    
  24335000   306.41772     -2390.8531      796.64985      232.54282     -16.341487    
  24340000   309.70076     -2392.8346      801.93777      255.4214       17.188988    
  24345000   297.71449     -2359.872       785.44374      200.43247      3.4659379    
  24350000   300.22518     -2383.8942      836.99003      242.92427      8.6154083    
  24355000   306.80935     -2375.6299      821.42919      274.88006      20.366619    
  24360000   290.81146     -2381.5746      801.48503      153.61784      3.2477925    
  24365000   287.12532     -2361.1464      822.85899      173.4446       4.6063555    
  24370000   295.2288      -2352.2652      810.89876      218.67554     -11.033003    
  24375000   300.89588     -2412.7149      852.35578      233.46784      10.358969    
  24380000   306.67303     -2406.923       838.5795       259.92455      15.362666    
  24385000   298.99554     -2418.9633      825.21107      188.74559     -9.1992641    
  24390000   303.81877     -2402.4805      810.95652      219.72805     -7.0046305    
  24395000   290.36111     -2410.3057      846.87433      167.59122     -22.485789    
  24400000   291.71546     -2395.7947      836.88115      180.18325     -19.253561    
  24405000   293.25642     -2366.5307      870.37984      252.13244      2.715871     
  24410000   301.40283     -2347.032       851.75532      301.57253     -13.35453     
  24415000   299.05846     -2394.2402      797.81352      186.44627     -6.5660483    
  24420000   288.74482     -2375.2403      808.59915      154.7458       2.9837462    
  24425000   309.6855      -2368.993       809.69537      286.92969      23.175681    
  24430000   295.46304     -2386.2244      847.39827      222.61228      12.225935    
  24435000   294.51237     -2386.9396      795.47109      164.30238     -15.356529    
  24440000   306.03016     -2407.5652      824.31352      241.18388     -5.9034254    
  24445000   309.3401      -2410.9084      814.27623      247.53605     -5.4170312    
  24450000   296.78324     -2423.2128      792.72657      138.8227      -8.8848578    
  24455000   289.72103     -2412.9081      801.42751      115.72609      4.8049999    
  24460000   294.93578     -2412.9323      795.08312      140.4459      -8.8656828    
  24465000   292.87881     -2421.6247      853.77759      178.18511     -3.883985     
  24470000   308.28791     -2395.3139      838.50764      281.08911      2.5246337    
  24475000   312.97478     -2390.8243      829.80527      304.81769      9.1752219    
  24480000   303.26993     -2381.078       829.68706      256.58921     -13.743958    
  24485000   295.54212     -2351.2952      846.87638      257.49101      3.9025229    
  24490000   295.71018     -2398.1054      802.82014      167.62652      8.8241029    
  24495000   296.74818     -2398.9076      737.30733      107.49959      20.482396    
  24500000   297.15923     -2385.3111      852.40792      238.64729      9.0748528    
  24505000   292.47773     -2409.2682      795.55816      129.93109     -6.7090953    
  24510000   305.70898     -2397.6452      806.4271       231.30267      11.128351    
  24515000   302.51343     -2365.3484      853.86025      291.98199      13.879627    
  24520000   292.80153     -2371.5672      830.50583      204.5101      -5.6174674    
  24525000   300.03485     -2391.3329      809.59995      206.96088      4.1674504    
  24530000   298.81365     -2394.4936      826.88199      213.80189     -24.483931    
  24535000   308.49646     -2385.8978      772.58388      225.82477      13.823714    
  24540000   292.58135     -2386.6435      783.07176      140.68705      32.913798    
  24545000   301.23321     -2403.5181      805.09119      197.41105      3.6268118    
  24550000   297.94425     -2367.3249      843.5682       252.47374      20.043315    
  24555000   302.89044     -2383.7593      769.87239      191.83078      28.564272    
  24560000   300.54287     -2393.7056      826.32431      224.34111      8.6912164    
  24565000   293.48227     -2404.1675      786.25974      131.72202      3.6983974    
  24570000   294.72092     -2403.8114      835.94963      189.15236      29.679191    
  24575000   296.09102     -2413.7998      832.0965       183.47886      7.4209592    
  24580000   294.64492     -2420.4771      803.1696       139.2536      -3.90473      
  24585000   301.72658     -2425.1153      814.85526      188.51917     -14.237336    
  24590000   300.02823     -2433.4064      836.101        191.3489       3.206976     
  24595000   302.36975     -2446.3202      812.05077      168.34408     -6.936998     
  24600000   300.26429     -2417.8978      794.28312      166.44693      15.757993    
  24605000   299.23792     -2420.2447      829.41775      193.11586      10.96158     
  24610000   299.03916     -2436.7878      819.6596       165.62969     -13.983698    
  24615000   292.90189     -2390.6102      809.74525      165.30486     -6.5352384    
  24620000   294.65909     -2401.2505      790.56587      145.96094      4.1145107    
  24625000   304.31831     -2380.1682      807.78339      241.84539     -2.3482121    
  24630000   300.39374     -2379.7857      846.51994      257.56758      8.5605624    
  24635000   302.30775     -2393.3452      815.74513      224.64394     -2.6022448    
  24640000   302.62177     -2396.9749      843.38662      250.5278      -1.7678732    
  24645000   299.93655     -2398.0077      819.96694      210.06699      23.684046    
  24650000   301.74845     -2406.7489      825.45303      217.61369      11.452149    
  24655000   305.26536     -2369.9061      825.37119      275.3412      -17.818857    
  24660000   305.33688     -2371.5324      823.06501      271.83504     -0.0030262971 
  24665000   301.22551     -2408.8446      845.84604      232.79356     -3.1429141    
  24670000   298.68271     -2391.3882      822.68937      211.934       -21.401196    
  24675000   297.12503     -2381.1224      824.04452      214.26861      9.6749222    
  24680000   300.17587     -2378.6993      818.14424      228.97949     -10.521757    
  24685000   305.86189     -2368.8289      834.89199      289.49545      5.4163467    
  24690000   304.63827     -2396.7695      810.10167      229.46979     -1.23032      
  24695000   297.0698      -2407.4871      832.96287      196.49301      4.1642259    
  24700000   301.88167     -2406.6918      806.33177      199.34377     -4.6065898    
  24705000   305.31314     -2399.7202      780.90504      201.34573      2.7101099    
  24710000   303.98048     -2403.4744      798.65742      207.39919      4.9684489    
  24715000   296.11596     -2394.1411      770.86336      142.05315      5.75575      
  24720000   302.37886     -2402.05        814.61477      215.23268      10.898051    
  24725000   307.52954     -2418.1122      800.52151      215.78357     -3.4048892    
  24730000   290.79883     -2406.0743      819.05656      146.61445      3.3541817    
  24735000   306.06601     -2408.6181      785.76901      201.80013      0.84510907   
  24740000   297.48613     -2429.4495      787.42095      131.47072      6.391382     
  24745000   291.92746     -2435.3891      834.10403      139.0755       17.830335    
  24750000   292.84753     -2440.2823      811.09835      116.6618       22.673445    
  24755000   293.1189      -2455.4152      786.55791      78.606218      17.187076    
  24760000   295.36273     -2418.4608      812.59696      154.97656     -6.5152472    
  24765000   308.1164      -2420.4704      833.41229      249.81486      5.3097226    
  24770000   311.38472     -2428.841       801.18508      228.70153     -3.4987073    
  24775000   294.61894     -2432.4341      808.95447      132.92654     -12.485421    
  24780000   304.14502     -2413.6455      818.56337      218.11498      0.49324577   
  24785000   311.43108     -2413.5023      820.23958      263.37101      8.075332     
  24790000   302.43822     -2389.6282      827.02376      240.41731      5.5368057    
  24795000   298.95606     -2385.7095      835.64939      232.20237      8.6101812    
  24800000   300.66449     -2384.46        812.62484      220.61237     -0.056178579  
  24805000   301.69903     -2410.914       844.01191      231.71287      32.461143    
  24810000   301.40142     -2398.214       781.36001      179.98678      14.250276    
  24815000   300.2229      -2384.9167      791.10088      195.99909      23.254636    
  24820000   301.72073     -2387.0964      806.38365      218.03169      4.5959031    
  24825000   296.85264     -2392.8748      829.75358      206.60143      9.4419531    
  24830000   295.25836     -2376.5158      805.19454      188.8969       7.5158859    
  24835000   297.30155     -2382.4872      792.25582      182.16751      1.5290526    
  24840000   296.46141     -2371.439       819.95715      215.90843      1.7144321    
  24845000   299.93254     -2369.4138      817.05799      235.72802      8.2362528    
  24850000   286.12463     -2363.8927      819.94848      161.82216      28.184464    
  24855000   300.61766     -2358.4568      820.63317      254.34465      9.4841679    
  24860000   295.96234     -2375.7942      806.09682      194.71767      6.9646777    
  24865000   295.18572     -2390.2139      816.73464      186.30587     -12.792444    
  24870000   306.318       -2389.9621      829.75472      265.9442       2.4576058    
  24875000   297.67078     -2400.0149      852.41173      226.9969      -4.6147023    
  24880000   296.73365     -2396.4129      814.73756      187.33797     -21.099527    
  24885000   299.4274      -2381.3926      766.89303      170.57286     -15.470046    
  24890000   289.93444     -2388.1456      798.48093      138.81437     -9.0191763    
  24895000   305.68436     -2354.9835      837.57378      304.96433     -4.3577668    
  24900000   302.2925      -2376.9484      807.94156      233.14617     -3.7330401    
  24905000   297.00765     -2391.8931      819.41786      198.17151      2.6292945    
  24910000   303.35922     -2370.3568      819.57278      257.72848      4.6107309    
  24915000   298.64411     -2410.1642      814.25536      184.49386      7.9130494    
  24920000   308.10293     -2371.046       817.3001       283.04677      0.50933718   
  24925000   304.77242     -2387.2684      843.44731      273.11635      10.761226    
  24930000   299.69674     -2389.6342      815.18836      212.2323       3.8759419    
  24935000   291.48563     -2365.1236      831.86383      204.46683      4.5318562    
  24940000   300.10208     -2368.621       799.34867      219.8222      -1.2603606    
  24945000   295.86077     -2355.076       841.35119      250.08473      8.9749468    
  24950000   308.73043     -2342.561       791.90096      289.87349     -10.751067    
  24955000   292.92567     -2366.49        831.3691       211.19062     -3.2500203    
  24960000   298.72693     -2361.5478      785.34486      204.69353      4.058434     
  24965000   305.73139     -2357.1647      813.22479      278.71448     -0.99639724   
  24970000   303.01352     -2360.1289      788.33836      234.66093      25.298839    
  24975000   302.81078     -2344.746       842.42748      302.92434     -6.5342224    
  24980000   299.63536     -2364.4193      816.91208      238.80499      22.788158    
  24985000   299.06249     -2374.8679      856.69302      264.72208     -9.0819927    
  24990000   297.71821     -2344.3939      835.1805       265.66953      3.8264456    
  24995000   293.55632     -2374.5698      811.58632      187.08783      8.6418301    
  25000000   298.906       -2341.2709      760.82268      201.51575      1.332048     
  25005000   303.60818     -2369.3809      818.229        258.84468     -0.46025229   
  25010000   292.98815     -2363.5305      816.86293      200.01642     -7.5454396    
Loop time of 16782.6 on 18 procs for 25000000 steps with 2001 atoms

Performance: 3861.146 ns/day, 0.006 hours/ns, 1489.640 timesteps/s
99.7% CPU use with 18 MPI tasks x 1 OpenMP threads

MPI task timing breakdown:
Section |  min time  |  avg time  |  max time  |%varavg| %total
---------------------------------------------------------------
Pair    | 87.812     | 1164.6     | 5646.3     |4726.7 |  6.94
Bond    | 66.408     | 162.82     | 496.42     | 998.2 |  0.97
Neigh   | 6059.4     | 6085.5     | 6134.1     |  36.7 | 36.26
Comm    | 3856.5     | 8997.5     | 10261      |1965.1 | 53.61
Output  | 5.2588     | 5.4257     | 5.5259     |   3.1 |  0.03
Modify  | 81.346     | 188.53     | 570.24     |1029.6 |  1.12
Other   |            | 178.2      |            |       |  1.06

Nlocal:        111.167 ave         357 max          39 min
Histogram: 8 0 8 0 0 0 0 0 1 1
Nghost:        3263.28 ave        3671 max        2487 min
Histogram: 2 0 0 0 2 6 0 0 1 7
Neighs:           1634 ave        7913 max         107 min
Histogram: 8 5 3 0 0 0 0 0 0 2
FullNghs:      3285.22 ave       15826 max         219 min
Histogram: 8 4 4 0 0 0 0 0 0 2

Total # of neighbors = 59134
Ave neighs/atom = 29.552224
Ave special neighs/atom = 3.5982009
Neighbor list builds = 2500000
Dangerous builds = 2500000
Total wall time: 4:39:45
