LAMMPS (23 Jun 2022)
OMP_NUM_THREADS environment is not set. Defaulting to 1 thread. (src/src/comm.cpp:98)
  using 1 OpenMP thread(s) per MPI task
Created orthogonal box = (0 0 0) to (150 150 150)
  2 by 3 by 3 MPI processor grid
Read molecule template lig:
  1 molecules
  0 fragments
  5 atoms with max type 2
  4 bonds with max type 1
  3 angles with max type 1
  0 dihedrals with max type 0
  0 impropers with max type 0
Created 1 atoms
  using box units in orthogonal box = (0 0 0) to (150 150 150)
  create_atoms CPU = 0.000 seconds
Created 3000 atoms
  using lattice units in orthogonal box = (0 0 0) to (150 150 150)
  create_atoms CPU = 0.004 seconds
Finding 1-2 1-3 1-4 neighbors ...
  special bond factors lj:    0        1        1       
  special bond factors coul:  0        0        0       
     2 = max # of 1-2 neighbors
     2 = max # of 1-3 neighbors
     2 = max # of 1-4 neighbors
     7 = max # of special neighbors
  special bonds CPU = 0.001 seconds
3000 atoms in group ligands
Generated 0 of 6 mixed pair_coeff terms from geometric mixing rule
Neighbor list info ...
  update every 1 steps, delay 10 steps, check yes
  max neighbors/atom: 2000, page size: 100000
  master list distance cutoff = 60
  ghost atom cutoff = 60
  binsize = 30, bins = 5 5 5
  1 neighbor lists, perpetual/occasional/extra = 1 0 0
  (1) pair lj/expand, perpetual
      attributes: half, newton on
      pair build: half/bin/newton
      stencil: half/bin/3d
      bin: standard
Setting up Verlet run ...
  Unit style    : real
  Current step  : 0
  Time step     : 30
Per MPI rank memory allocation (min/avg/max) = 8.329 | 8.352 | 8.375 Mbytes
   Step          Temp          E_pair         E_mol          TotEng         Press     
         0   0              9.7186893e+12  3.7351619e-25  9.7186893e+12  7.8980177e+11
     10000   140.96103     -1060.6488      627.19727      827.08269      5.6551149    
Loop time of 4.4296 on 18 procs for 10000 steps with 3001 atoms

Performance: 5851.544 ns/day, 0.004 hours/ns, 2257.540 timesteps/s
99.6% CPU use with 18 MPI tasks x 1 OpenMP threads

MPI task timing breakdown:
Section |  min time  |  avg time  |  max time  |%varavg| %total
---------------------------------------------------------------
Pair    | 0.20456    | 0.32553    | 0.46523    |  12.2 |  7.35
Bond    | 0.080174   | 0.11034    | 0.14163    |   4.1 |  2.49
Neigh   | 1.7384     | 1.7419     | 1.7481     |   0.2 | 39.32
Comm    | 1.8457     | 2.0509     | 2.2359     |   6.8 | 46.30
Output  | 4.208e-05  | 4.5611e-05 | 6.1293e-05 |   0.0 |  0.00
Modify  | 0.098978   | 0.13381    | 0.16923    |   4.5 |  3.02
Other   |            | 0.06705    |            |       |  1.51

Nlocal:        166.722 ave         221 max         138 min
Histogram: 2 3 1 5 4 1 0 1 0 1
Nghost:           4874 ave        5121 max        4674 min
Histogram: 2 2 1 3 3 1 3 2 0 1
Neighs:        1133.94 ave        1628 max         759 min
Histogram: 3 1 1 3 1 4 3 1 0 1

Total # of neighbors = 20411
Ave neighs/atom = 6.8013995
Ave special neighs/atom = 3.5988004
Neighbor list builds = 909
Dangerous builds = 0
1 atoms in group nps
600 atoms in group amines
Generated 0 of 6 mixed pair_coeff terms from geometric mixing rule
Neighbor list info ...
  update every 1 steps, delay 10 steps, check yes
  max neighbors/atom: 2000, page size: 100000
  master list distance cutoff = 60
  ghost atom cutoff = 60
  binsize = 30, bins = 5 5 5
  2 neighbor lists, perpetual/occasional/extra = 1 1 0
  (1) pair lj/expand, perpetual
      attributes: half, newton on
      pair build: half/bin/newton
      stencil: half/bin/3d
      bin: standard
  (2) compute coord/atom, occasional
      attributes: full, newton on
      pair build: full/bin
      stencil: full/bin/3d
      bin: standard
Setting up Verlet run ...
  Unit style    : real
  Current step  : 10000
  Time step     : 30
Per MPI rank memory allocation (min/avg/max) = 7.695 | 7.718 | 7.741 Mbytes
   Step          Temp          E_pair         E_mol          TotEng         Press     
     10000   140.96103     -1060.6488      627.19727      827.08269      5.6551149    
    100000   299.68713     -4344.227       1251.2186     -413.07716      1.3867382    
    200000   302.74009     -5241.923       1270.0773     -1264.6136     -2.4779095    
    300000   301.71388     -5821.7951      1270.8983     -1852.8416     -16.909136    
    400000   303.52242     -6265.093       1227.5366     -2323.3284     -16.274158    
    500000   297.67249     -6423.2802      1204.549      -2556.8157     -3.1635986    
    600000   305.20156     -6605.2584      1183.1224     -2692.8924      9.7271796    
    700000   295.87142     -6780.566       1223.1098     -2911.6467      18.478746    
    800000   294.63903     -6845.1216      1210.0044     -3000.3282     -2.5565437    
    900000   301.51306     -6896.0229      1154.1284     -3045.6351     -42.540503    
   1000000   294.07289     -6940.8002      1132.8194     -3178.2546     -25.901131    
   1100000   306.86921     -6983.3796      1218.4357     -3020.7874      8.965469     
   1200000   299.17401     -7068.1786      1204.4807     -3188.3552     -11.196921    
   1300000   304.92583     -7061.7467      1223.5143     -3111.4544     -6.0785729    
   1400000   297.64787     -7106.385       1184.6557     -3260.0341      5.1206764    
   1500000   303.36562     -7112.1971      1193.9124     -3205.4588      16.472854    
   1600000   296.1087      -7126.2706      1177.6163     -3300.7229     -10.314878    
   1700000   308.74585     -7169.6693      1193.2815     -3215.4496      26.930239    
   1800000   300.01779     -7220.6808      1201.5755     -3336.2172      29.275637    
   1900000   295.32863     -7228.1153      1162.8479     -3424.3118      19.215255    
   2000000   304.77468     -7230.4326      1152.8769     -3352.1294     -6.7249892    
   2100000   293.37951     -7239.621       1198.7832     -3417.3121     -44.861209    
   2200000   300.51539     -7247.5325      1157.1288     -3403.0658     -14.19409     
   2300000   304.16637     -7283.1554      1212.562      -3350.6069     -25.018026    
   2400000   299.87919     -7286.7157      1180.2758     -3424.7912      11.655306    
   2500000   293.69451     -7335.1118      1188.8471     -3519.922      -25.666674    
   2600000   298.54687     -7315.3349      1204.511      -3441.0894     -1.9835607    
   2700000   300.13333     -7392.4019      1219.3111     -3489.1695      20.233419    
   2800000   306.71518     -7394.0576      1198.0599     -3453.2187      0.47895263   
   2900000   296.96099     -7437.7632      1198.4802     -3583.73       -15.875682    
   3000000   292.65651     -7452.6416      1151.4313     -3684.1498      42.445939    
   3100000   296.81118     -7462.842       1170.7678     -3637.8609      33.035144    
   3200000   298.93472     -7507.4874      1159.4461     -3674.8384     -17.484929    
   3300000   301.44356     -7501.4491      1176.669      -3629.1421     -17.40317     
   3400000   307.21054     -7461.9916      1146.0099     -3568.773      -17.866045    
   3500000   308.11967     -7510.2073      1166.7723     -3588.0964      7.2983621    
   3600000   305.17097     -7467.3232      1187.0904     -3551.2627      36.763455    
   3700000   299.28149     -7505.1232      1168.1371     -3660.6824     -22.475573    
   3800000   303.29969     -7538.5177      1192.9574     -3633.324      -18.425998    
   3900000   303.76746     -7533.5899      1178.8403     -3638.3304      75.522181    
   4000000   298.00824     -7536.6691      1166.6383     -3705.1129     -17.559215    
   4100000   301.10432     -7491.3415      1179.7635     -3618.9737      25.544516    
   4200000   300.65257     -7538.171       1175.5065     -3674.0999     -28.581053    
   4300000   298.49358     -7549.5768      1168.7008     -3711.618      -36.480497    
   4400000   301.04072     -7582.9064      1176.4857     -3714.385      -36.048873    
   4500000   299.46925     -7579.5905      1166.6951     -3734.9125     -6.028844     
   4600000   299.09259     -7588.0964      1142.5656     -3770.9161      46.923747    
   4700000   294.98528     -7597.1988      1188.7021     -3770.6114      5.1199896    
   4800000   300.75397     -7590.3469      1188.0202     -3712.8553      43.283995    
   4900000   296.63743     -7585.7433      1122.4235     -3810.6602      14.364972    
   5000000   302.76482     -7588.4636      1182.2859     -3698.7244      51.321262    
   5100000   303.29598     -7592.7578      1165.5608     -3714.9939     -5.8317241    
   5200000   293.03552     -7639.597       1165.3385     -3853.8088     -30.061379    
   5300000   305.31523     -7654.9982      1218.4501     -3706.2881      13.212839    
   5400000   299.55301     -7644.5906      1167.6022     -3798.2565     -16.421138    
   5500000   300.3169      -7646.9382      1166.506      -3794.8693      4.1197442    
   5600000   299.24075     -7633.8992      1149.6277     -3808.332      -21.820374    
   5700000   294.9864      -7637.8731      1166.9079     -3833.0699      14.226048    
   5800000   302.43044     -7644.9065      1158.6295     -3781.8139      0.91869882   
   5900000   295.36791     -7644.1364      1148.4486     -3854.3809     -54.145243    
   6000000   303.10818     -7621.5003      1234.8935     -3676.083      -11.5663      
   6100000   297.36408     -7659.6125      1191.496      -3808.959       36.199092    
   6200000   302.90027     -7632.8135      1195.2332     -3728.9158      19.531976    
   6300000   298.33137     -7692.358       1190.1142     -3834.4363      24.895749    
   6400000   300.26651     -7670.1628      1187.9779     -3797.0726      2.8197645    
   6500000   300.52783     -7686.0816      1149.9637     -3848.6687     -2.5194825    
   6600000   300.43714     -7685.2874      1167.4512     -3831.198       25.012045    
   6700000   297.93036     -7674.7132      1190.028      -3820.4637      36.338657    
   6800000   296.87301     -7677.7559      1106.8314     -3916.1584      27.858787    
   6900000   296.60345     -7697.4313      1131.3126     -3913.763       24.430394    
   7000000   300.91982     -7672.5517      1138.7337     -3842.8635     -39.075773    
   7100000   298.19432     -7666.5811      1197.227      -3802.7723      28.304631    
   7200000   299.84838     -7697.0963      1165.8621     -3849.861       16.410543    
   7300000   302.26172     -7725.6533      1123.051      -3899.648       57.090862    
   7400000   299.93983     -7706.709       1167.4632     -3857.0548     -3.1536983    
   7500000   304.93691     -7709.9277      1155.4469     -3827.6037     -36.877549    
   7600000   303.3039      -7684.858       1141.7562     -3830.8279      52.101177    
   7700000   293.94741     -7711.29        1191.9245     -3890.7613     -33.609087    
   7800000   301.88967     -7700.2581      1145.2765     -3855.3543      10.058548    
   7900000   299.67927     -7740.5604      1187.0595     -3873.64        2.1417639    
   8000000   299.94981     -7745.9666      1188.4816     -3875.2048      40.366175    
   8100000   296.8102      -7717.2873      1187.4827     -3875.6001      8.1551631    
   8200000   304.94372     -7745.4871      1155.3426     -3863.2065      5.7659216    
   8300000   301.16891     -7716.4291      1162.5172     -3860.7299      31.929339    
   8400000   298.37568     -7697.9056      1125.9266     -3903.7753     -34.130671    
   8500000   305.69222     -7746.4291      1100.4443     -3912.3535     -34.665021    
   8600000   303.02376     -7739.2427      1177.5599     -3851.9139      20.89564     
   8700000   297.85959     -7765.7756      1178.6847     -3923.5023      17.254802    
   8800000   298.43592     -7738.6733      1119.9613     -3949.9696      39.425371    
   8900000   303.63643     -7734.6917      1169.5576     -3849.8866      16.925298    
   9000000   302.63647     -7719.3029      1155.6998     -3857.2976      1.7692851    
   9100000   296.52937     -7746.2488      1133.5241     -3961.0315     -5.3207088    
   9200000   300.30052     -7708.5881      1121.9931     -3901.1786     -1.7801952    
   9300000   294.08253     -7727.2563      1116.9539     -3980.49       -12.146586    
   9400000   291.73636     -7731.3369      1210.1601     -3912.3447     -20.31446     
   9500000   299.01284     -7744.5773      1138.181      -3932.4949      19.558124    
   9600000   303.69248     -7737.407       1184.9089     -3836.7493      29.159091    
   9700000   296.58651     -7721.3469      1166.8104     -3902.3323      11.618861    
   9800000   304.53097     -7791.1382      1118.7884     -3949.1029     -36.612492    
   9900000   295.23608     -7774.1361      1177.8661     -3956.142       61.378853    
  10000000   300.70243     -7772.6885      1196.457      -3887.2211      3.5785438    
  10100000   306.90712     -7799.0005      1160.1931     -3894.3119      16.055508    
  10200000   298.57457     -7783.7327      1182.1207     -3931.6298     -25.742047    
  10300000   302.49202     -7808.8093      1171.2755     -3932.5201     -52.345475    
  10400000   303.08808     -7817.3749      1093.989      -4013.0419      23.915879    
  10500000   296.31554     -7806.3962      1167.3732     -3989.242      -10.287324    
  10600000   298.70565     -7805.731       1142.3785     -3992.1981      34.098588    
  10700000   303.26785     -7830.0984      1182.2637     -3935.8832      40.46212     
  10800000   307.20829     -7809.5995      1116.0565     -3946.3543      26.540808    
  10900000   303.92871     -7821.5905      1196.1132     -3907.6161     -18.502083    
  11000000   304.34499     -7804.8279      1131.2079     -3952.0362     -24.951207    
  11100000   304.95142     -7802.2256      1165.73       -3909.4888      29.065045    
  11200000   289.66374     -7816.3805      1127.488      -4098.5948     -30.114005    
  11300000   302.81162     -7794.3083      1191.3262     -3895.1103     -30.697589    
  11400000   292.84187     -7804.1664      1157.7875     -4027.661      -19.834842    
  11500000   298.12546     -7834.305       1128.92       -4039.4189     -13.661769    
  11600000   304.71208     -7835.0425      1174.8778     -3935.2982     -13.371086    
  11700000   298.92463     -7815.9354      1181.952      -3960.8708      22.091025    
  11800000   297.31674     -7846.1328      1130.7933     -4056.6053      37.788521    
  11900000   294.6453      -7803.5832      1188.9323     -3979.8059     -35.233296    
  12000000   295.91405     -7812.8141      1178.4384     -3988.185      -12.264799    
  12100000   299.1582      -7781.9982      1144.5179     -3962.279       25.443821    
  12200000   296.78701     -7848.767       1164.8188     -4029.9511     -1.1123448    
  12300000   307.48513     -7856.9804      1163.1091     -3944.2069      35.363092    
  12400000   302.00269     -7833.0964      1164.4917     -3967.9667      22.922423    
  12500000   299.40439     -7811.808       1149.6848     -3984.7203      11.143961    
  12600000   302.93982     -7844.5858      1159.7035     -3975.8641      13.426557    
  12700000   300.55178     -7819.1326      1156.8139     -3974.6554      16.62018     
  12800000   294.87295     -7802.5414      1147.1313     -4018.5294      13.116968    
  12900000   296.91501     -7825.2253      1143.463      -4026.6206      3.1819743    
  13000000   304.2068      -7862.6996      1168.7308     -3973.6207      30.585778    
  13100000   297.35299     -7811.6318      1188.9985     -3963.575      -31.765883    
  13200000   299.06101     -7836.4353      1118.7416     -4043.3616     -10.558102    
  13300000   288.31952     -7812.3074      1201.7734     -4032.2569      9.4450525    
  13400000   306.05898     -7818.3442      1176.6123     -3904.8208     -7.8772157    
  13500000   300.79694     -7799.6917      1179.5041     -3930.332       26.94461     
  13600000   297.92624     -7803.9787      1161.2294     -3978.5647      1.1214398    
  13700000   309.4569      -7799.9611      1164.7023     -3867.962      -47.639851    
  13800000   305.72491     -7840.6633      1131.8561     -3974.8835     -30.787737    
  13900000   299.66677     -7851.9794      1188.1147     -3984.1155      24.674965    
  14000000   308.57014     -7851.8899      1138.1593     -3954.3636      14.994066    
  14100000   295.04523     -7834.3625      1185.8071     -4010.1341      72.369336    
  14200000   305.07094     -7858.2994      1185.2267     -3944.9972      26.908291    
  14300000   293.20895     -7833.9521      1175.9375     -4036.0141      20.729387    
  14400000   295.05586     -7852.3309      1172.2545     -4041.56        15.46852     
  14500000   293.45313     -7830.1827      1163.674      -4042.3246     -14.646034    
  14600000   303.55951     -7834.9797      1189.9566     -3930.4634      22.098638    
  14700000   310.31178     -7808.6148      1128.5185     -3905.1549     -1.5392935    
  14800000   299.26977     -7847.6218      1183.5725     -3987.8502     -27.533636    
  14900000   295.9842      -7826.8698      1180.108      -3999.9438     -9.9728767    
  15000000   305.53848     -7842.9088      1155.107      -3955.5453      25.319881    
  15100000   306.27168     -7847.7783      1127.2754     -3981.6899      23.071968    
  15200000   294.734       -7855.2008      1158.1639     -4061.3988     -16.450839    
  15300000   301.52559     -7828.6829      1139.8097     -3992.5016      2.331126     
  15400000   302.52763     -7833.4899      1155.1512     -3973.0065     -44.152262    
  15500000   295.317       -7817.3106      1173.4927     -4002.9663     -17.915967    
  15600000   301.15588     -7817.6689      1167.1948     -3957.4086      34.996781    
  15700000   303.16923     -7826.718       1161.3228     -3954.3256      47.785478    
  15800000   300.78371     -7846.1193      1174.3116     -3982.0704     -5.7264055    
  15900000   297.11897     -7818.7609      1114.867      -4046.9282     -3.6129909    
  16000000   309.84655     -7821.1615      1113.5592     -3936.8211      26.887337    
  16100000   304.67674     -7855.0684      1153.7134     -3976.8046      11.263209    
  16200000   303.73469     -7840.4306      1102.6728     -4021.6316     -1.964698     
  16300000   306.62271     -7839.8512      1164.9598     -3932.9392      28.390434    
  16400000   302.50396     -7830.3212      1183.3393     -3941.8614     -6.9338067    
  16500000   301.40675     -7831.6337      1162.8863     -3973.4385     -13.706969    
  16600000   307.09289     -7833.8692      1152.6965     -3935.0159     -23.327943    
  16700000   296.03651     -7854.4796      1140.0866     -4067.1071     -10.979653    
  16800000   297.24691     -7871.1768      1135.0433     -4078.0238     -19.047001    
  16900000   289.76934     -7886.5458      1173.7293     -4121.5744      5.2989278    
  17000000   297.0131      -7888.3083      1177.2691     -4055.0203      41.153054    
  17100000   298.23971     -7871.4016      1213.5289     -3990.885      -43.031688    
  17200000   293.38922     -7890.4753      1201.8675     -4064.9952      0.79724541   
  17300000   300.271       -7873.9202      1165.6411     -4023.1266     -54.381218    
  17400000   299.4113      -7884.7119      1139.787      -4067.4602      8.193993     
  17500000   310.31894     -7866.1059      1137.5031     -3953.5974     -9.0644037    
  17600000   302.4167      -7879.195       1147.7068     -4027.1481     -4.023287     
  17700000   304.91528     -7897.414       1126.1746     -4044.5558     -5.7265204    
  17800000   297.35384     -7877.4969      1145.5599     -4072.8711      16.990229    
  17900000   299.59357     -7908.2558      1139.0191     -4090.1421      8.1721973    
  18000000   291.94367     -7888.1726      1176.1248     -4101.3619     -30.221978    
  18100000   298.08298     -7857.5175      1107.6223     -4084.309       31.291191    
  18200000   299.90944     -7912.7745      1221.632      -4009.2233      10.805606    
  18300000   300.00857     -7930.223       1193.8071     -4053.6102      0.84441498   
  18400000   293.89974     -7960.3365      1140.3197     -4191.8389      0.29815249   
  18500000   299.42475     -7935.0803      1141.024      -4116.4714     -3.0369256    
  18600000   306.08691     -7904.8213      1145.0149     -4022.6456      44.248669    
  18700000   300.46157     -7906.5964      1162.022      -4057.7178      2.9659853    
  18800000   289.59647     -7929.1151      1141.9039     -4197.515      -28.785316    
  18900000   303.62327     -7948.152       1146.0794     -4086.9428     -1.2340028    
  19000000   294.49075     -7932.1013      1174.0879     -4124.5505     -51.269067    
  19100000   298.32515     -7921.6404      1143.7873     -4110.1013     -29.368776    
  19200000   301.33206     -7931.7584      1105.1567     -4131.9607      27.142378    
  19300000   298.9616      -7905.4684      1172.3087     -4059.7165      25.865742    
  19400000   306.15397     -7943.7083      1148.5987     -4057.3491      8.837048     
  19500000   292.70799     -7925.0235      1120.8317     -4186.6709      29.625137    
  19600000   304.32433     -7925.8982      1163.049      -4041.4502     -1.2847486    
  19700000   294.63982     -7912.9641      1160.8965     -4117.2715     -26.756293    
  19800000   301.72825     -7903.6361      1134.1726     -4071.2797     -15.452075    
  19900000   306.40506     -7914.1773      1181.356      -3992.8155     -12.33837     
  20000000   300.32719     -7906.5505      1145.6993     -4075.1962     -44.880295    
  20100000   294.90948     -7937.0516      1149.4889     -4150.3553      12.008444    
  20200000   295.745       -7963.2905      1189.1374     -4129.4741      22.857172    
  20300000   301.70526     -7925.3109      1132.5598     -4094.7729     -1.0076901    
  20400000   297.04923     -7917.2601      1167.4776     -4093.4404      17.714291    
  20500000   296.96079     -7924.9509      1182.7583     -4086.6415      21.77885     
  20600000   307.96147     -7941.3351      1155.85       -4031.5612      9.9539884    
  20700000   303.994       -7906.2055      1172.7623     -4014.998      -12.903655    
  20800000   295.63874     -7905.9602      1159.7826     -4102.4488      29.318446    
  20900000   306.22975     -7912.0158      1085.267      -4088.3107      46.848842    
  21000000   305.8319      -7925.3763      1199.5766     -3990.9193     -0.25692849   
  21100000   300.9981      -7921.2699      1145.1919     -4084.4236      9.9265733    
  21200000   296.2543      -7899.4348      1136.3657     -4113.8358     -12.350557    
  21300000   298.39231     -7939.7064      1145.365      -4125.989      -5.420795     
  21400000   307.20589     -7926.2316      1146.5678     -4032.4966      3.8322728    
  21500000   295.15762     -7933.8207      1119.895      -4174.4994     -2.3256434    
  21600000   301.8876      -7949.4325      1165.1722     -4084.6515      17.113997    
  21700000   295.89259     -7905.1628      1152.679      -4106.4849     -2.9619673    
  21800000   295.06132     -7955.3101      1163.0808     -4153.664      -25.595839    
  21900000   298.71997     -7944.3198      1155.0703     -4117.967       15.542318    
  22000000   305.8085      -7976.2383      1182.1365     -4059.4306     -29.152155    
  22100000   294.95013     -7954.8258      1126.1753     -4191.0795      27.362427    
  22200000   300.06724     -7938.8224      1133.6413     -4121.8507      29.174795    
  22300000   294.00445     -7927.9104      1132.255      -4166.5411      17.050114    
  22400000   294.65724     -7930.7805      1177.5162     -4118.3124     -10.577627    
  22500000   299.81453     -7965.1696      1133.8536     -4150.2455      8.4464621    
  22600000   307.22121     -7951.1863      1156.3813     -4047.5007     -5.6691187    
  22700000   308.23382     -7948.6274      1155.4111     -4036.8569     -7.5631972    
  22800000   302.12931     -7956.6617      1166.9723     -4087.9192      13.08614     
  22900000   299.836       -7925.1504      1155.9948     -4087.8931      32.461676    
  23000000   301.62648     -7968.071       1148.3843     -4122.413      -25.695221    
  23100000   301.082       -7949.7045      1126.6121     -4130.6877      22.012273    
  23200000   301.45908     -7925.5297      1135.9237     -4093.8293     -48.362085    
  23300000   299.33033     -7942.9194      1200.302      -4065.8768      26.294568    
  23400000   299.90025     -7949.9589      1161.6748     -4106.447      -22.843101    
  23500000   297.86194     -7946.1316      1181.8101     -4100.7118     -31.807433    
  23600000   293.15413     -7955.4041      1143.3305     -4190.5632      19.62071     
  23700000   294.05898     -7956.2806      1146.0758     -4180.6028      8.1308285    
  23800000   302.10411     -7940.1237      1169.6943     -4068.8845      47.183139    
  23900000   297.78075     -7977.6936      1193.5371     -4121.273       19.556984    
  24000000   297.28101     -7944.833       1122.196      -4164.2223      8.8822346    
  24100000   293.43582     -7899.6568      1165.8203     -4109.8071     -21.044334    
  24200000   293.9991      -7966.6517      1188.5527     -4149.0326     -7.4930658    
  24300000   300.90556     -7985.3711      1199.991      -4094.5532      8.2552878    
  24400000   302.28428     -7945.4491      1189.0846     -4053.2084     -7.3474401    
  24500000   299.29927     -7965.4229      1186.1982     -4102.7619      0.30318848   
  24600000   303.06131     -7912.8875      1158.0455     -4044.7374      9.1707331    
  24700000   306.40688     -7967.0082      1142.9103     -4084.0758      26.626729    
  24800000   294.6155      -7938.4392      1202.0595     -4101.8011      18.786987    
  24900000   297.89528     -7963.694       1168.4936     -4131.2926      20.320655    
  25000000   296.21356     -7964.7476      1164.4263     -4151.4522      14.509235    
  25100000   301.11181     -7973.9076      1160.3677     -4120.8686     -17.268555    
  25200000   297.75812     -7930.4189      1157.5715     -4110.1662      21.18504     
  25300000   298.13625     -7952.8871      1167.8602     -4118.9642      2.4018196    
  25400000   298.76699     -7964.4125      1143.5711     -4149.1385      5.6047536    
  25500000   297.67979     -7974.1636      1161.2051     -4150.9778      28.725575    
  25600000   295.64897     -7939.949       1140.4373     -4155.6915     -8.7889497    
  25700000   303.99009     -7995.548       1156.9685     -4120.1693     -13.027514    
  25800000   305.68371     -7989.5155      1180.6024     -4075.3579     -23.156804    
  25900000   296.51654     -8002.3051      1168.8467     -4181.8799     -5.9236158    
  26000000   298.83158     -7999.6122      1147.1964     -4180.1353     -24.209743    
  26100000   295.2411      -7977.3528      1111.3535     -4225.8264     -5.4230484    
  26200000   295.05591     -7944.2411      1124.8901     -4180.8342      8.6920913    
  26300000   300.2197      -7989.6092      1165.2477     -4139.6678      6.8685511    
  26400000   303.83328     -8020.1591      1123.5707     -4179.5805     -15.1185      
  26500000   295.67366     -8018.5845      1137.9157     -4236.6277      24.624044    
  26600000   294.84492     -8027.3686      1200.8887     -4189.8498     -25.183599    
  26700000   297.44666     -7991.7477      1188.666      -4143.1857     -7.8209967    
  26800000   299.34563     -8026.8184      1144.8173     -4205.1237      11.677672    
  26900000   297.86923     -8021.3633      1176.4548     -4181.2337      9.0584777    
  27000000   301.82796     -8001.8046      1134.8157     -4167.9135      26.465779    
  27100000   303.44525     -8012.2008      1167.2336     -4131.4292      16.914239    
  27200000   301.34021     -8003.5377      1170.4507     -4138.3732      7.3717048    
  27300000   295.10289     -8027.7815      1121.499      -4267.3455      42.351228    
  27400000   302.10803     -8028.6542      1145.0666     -4182.0077      11.96111     
  27500000   298.13428     -8013.8548      1109.734      -4238.0758      34.92446     
  27600000   305.82844     -8030.4215      1165.5709     -4130.0011      31.593795    
  27700000   297.16174     -7971.0191      1110.6079     -4203.0631     -32.355482    
  27800000   288.50241     -7981.59        1162.3561     -4239.3212      2.6873843    
  27900000   303.91564     -8007.8713      1183.4173     -4106.7097     -19.591957    
  28000000   299.47449     -8000.9622      1112.4404     -4210.4921     -1.0952407    
  28100000   290.59257     -8054.4574      1160.9726     -4294.881       24.034761    
  28200000   297.7069      -8004.0683      1191.3304     -4150.5148      1.172846     
  28300000   294.35533     -7991.1376      1139.884      -4219.0016      4.955604     
  28400000   298.40338     -7958.9319      1149.0783     -4141.4022      17.544539    
  28500000   305.19496     -7987.5719      1189.0174     -4069.3699      0.59272172   
  28600000   297.56124     -8017.3086      1131.1184     -4225.2695      2.6022878    
  28700000   298.83015     -8045.7767      1130.074      -4243.435      -28.331576    
  28800000   307.89748     -8036.1257      1138.6179     -4144.156      -17.54535     
  28900000   301.07048     -7971.9728      1137.631      -4142.0401     -1.2900229    
  29000000   297.87174     -8003.604       1129.0003     -4210.9065      1.1899781    
  29100000   300.21774     -8003.6934      1176.1637     -4142.8535      28.797728    
  29200000   296.10112     -7958.3187      1119.9115     -4190.5436     -70.376068    
  29300000   299.01163     -7986.3212      1154.5028     -4157.9278     -23.049335    
  29400000   298.92951     -8002.85        1154.5523     -4175.1414      7.99509      
  29500000   296.41078     -8003.835       1147.8994     -4205.303       1.7545773    
  29600000   303.1524      -7970.5057      1171.4482     -4088.1384      9.3363717    
  29700000   293.56792     -8006.4101      1135.0627     -4246.1368      14.064426    
  29800000   287.51447     -8046.1852      1165.4166     -4309.6906      11.024421    
  29900000   304.73802     -8017.9089      1181.8488     -4110.9617     -0.32253959   
  30000000   300.78658     -8060.716       1149.7643     -4221.1887      26.235054    
  30100000   292.10404     -8024.382       1184.395      -4227.867      -21.625912    
  30200000   297.64111     -8035.9295      1152.1958     -4222.0989     -31.4594      
  30300000   303.64452     -8004.5382      1187.546      -4101.6723      14.734491    
  30400000   308.49604     -7991.506       1185.553      -4047.2487      58.487296    
  30500000   295.75437     -8030.0271      1117.848      -4267.4163      18.984605    
  30600000   293.51537     -8044.7107      1167.2848     -4252.6852      15.957719    
  30700000   290.06159     -8016.8306      1141.5342     -4281.4409      12.24431     
  30800000   297.36044     -8018.9129      1152.5046     -4207.2834     -12.71015     
  30900000   305.27407     -8050.8274      1175.2972     -4145.6381     -7.4991643    
  31000000   304.3372      -8016.3808      1124.0462     -4170.8205     -9.3240987    
  31100000   300.56461     -8071.9716      1175.4708     -4208.7228     -17.871482    
  31200000   298.75984     -8031.7203      1133.6346     -4226.4467     -33.56355     
  31300000   295.02479     -8024.0652      1142.3982     -4243.4284      15.193308    
  31400000   302.78259     -7975.146       1162.7356     -4104.7983     -7.9121678    
  31500000   294.53203     -8036.8687      1200.439      -4202.5976      0.52725513   
  31600000   305.7429      -8000.3192      1188.0645     -4078.1702      28.234654    
  31700000   300.01618     -8019.8919      1167.7322     -4169.286       5.1576434    
  31800000   298.14785     -8058.6271      1113.3966     -4279.0643      9.9521454    
  31900000   299.30093     -8063.6164      1140.8284     -4246.3103     -4.1932692    
  32000000   305.48581     -8025.5368      1110.5089     -4183.2423     -13.077761    
  32100000   294.69407     -8017.8939      1134.9652     -4247.6475     -8.7929861    
  32200000   300.88617     -8024.2741      1160.641      -4172.9795     -16.793029    
  32300000   305.08317     -8045.3835      1122.1189     -4195.0797     -27.763143    
  32400000   295.33526     -7996.0788      1118.3433     -4236.7206     -46.999598    
  32500000   291.41288     -8001.9674      1154.9866     -4241.0414      7.4022576    
  32600000   297.13699     -7988.8871      1192.1722     -4139.5881      27.933624    
  32700000   305.3704      -8037.7504      1142.8616     -4164.1354     -3.9020479    
  32800000   297.28475     -8026.4235      1120.9375     -4247.0378      48.303876    
  32900000   290.59242     -8001.5542      1124.0874     -4278.8645     -49.590111    
  33000000   301.61076     -8044.1647      1135.6271     -4211.4045      3.963041     
  33100000   297.33558     -8001.3712      1181.8828     -4160.5857      1.8873731    
  33200000   298.47137     -8015.2924      1175.9967     -4170.2363      19.369234    
  33300000   294.11659     -8033.0566      1115.9935     -4286.9461      5.7956866    
  33400000   303.06931     -8010.7413      1159.2353     -4141.3299     -25.225344    
  33500000   291.94911     -8032.2546      1175.2708     -4246.2492      10.299287    
  33600000   308.61101     -8024.505       1158.9044     -4105.8682      40.298563    
  33700000   296.70183     -8031.4181      1099.1584     -4279.0242     -0.46580656   
  33800000   305.04025     -7987.2894      1113.1909     -4146.2974      52.869394    
  33900000   295.1508      -8041.8197      1150.8178     -4251.6365     -27.365852    
  34000000   299.91158     -8018.2151      1160.4238     -4175.8529      38.937675    
  34100000   290.94728     -8023.596       1202.1766     -4219.6437      14.799977    
  34200000   300.48        -7995.6075      1149.1561     -4159.43        18.725581    
  34300000   304.53821     -7980.4287      1166.7667     -4090.3503      48.980149    
  34400000   304.70337     -8020.7876      1175.2267     -4120.7722     -7.927901     
  34500000   298.43829     -8011.7829      1155.7535     -4187.2658     -5.3457961    
  34600000   290.52639     -8012.8813      1190.1739     -4224.6955     -11.732764    
  34700000   307.24286     -8007.5634      1148.3572     -4111.7084     -1.7464867    
  34800000   303.11901     -8006.1748      1179.9623     -4115.592      -0.46284046   
  34900000   295.18742     -8002.2508      1170.4143     -4192.1437      2.3437257    
  35000000   290.0338      -8020.4218      1221.8224     -4204.9924      69.225885    
  35100000   310.88968     -8012.6748      1155.645      -4076.9206      17.51198     
  35200000   301.71092     -8039.3348      1191.8889     -4149.4171     -24.991146    
  35300000   295.26275     -8006.1482      1167.4354     -4198.3462      28.533771    
  35400000   294.9703      -7987.9772      1118.0024     -4232.2236     -41.536331    
  35500000   300.92799     -8018.1292      1199.0731     -4128.0285      4.5294562    
  35600000   296.45411     -8007.1268      1182.6185     -4173.4881     -26.05768     
  35700000   301.82144     -7960.716       1161.7369     -4099.962       8.9351574    
  35800000   290.07046     -8009.5221      1123.8825     -4291.7047     -25.897417    
  35900000   298.92185     -8000.7765      1181.64       -4146.0487      20.547174    
  36000000   298.14101     -8001.5737      1124.4567     -4211.0118      28.436616    
  36100000   301.11012     -8004.7532      1168.8946     -4143.2024     -10.658198    
  36200000   297.83976     -8045.067       1128.4667     -4253.1891     -36.357298    
  36300000   300.7211      -8009.2784      1151.5376     -4168.5634      0.92555601   
  36400000   304.93965     -8015.8509      1179.6979     -4109.2516      9.3160206    
  36500000   302.21474     -8023.4569      1166.0878     -4154.8349      5.367597     
  36600000   304.69579     -8049.4823      1211.8825     -4112.8791      9.2179994    
  36700000   302.90452     -8085.3254      1145.0092     -4231.6137      18.852758    
  36800000   301.77867     -8061.1752      1125.5165     -4237.024       14.635447    
  36900000   301.42329     -8060.188       1194.567      -4170.1643      34.68644     
  37000000   291.50173     -8008.8366      1108.9263     -4293.1765      36.445711    
  37100000   295.0014      -8038.8909      1159.4699     -4241.3915      2.7036612    
  37200000   295.75216     -8008.689       1184.7437     -4179.2022      68.027835    
  37300000   300.3299      -8058.5764      1136.3809     -4236.5163      21.461059    
  37400000   302.53656     -8052.0518      1173.0028     -4173.637       20.655977    
  37500000   288.21696     -8023.0865      1121.499      -4324.2275     -2.2637426    
  37600000   301.49544     -8014.7315      1143.6639     -4174.9657      19.120605    
  37700000   298.7117      -8063.3244      1177.1165     -4214.9994     -16.703666    
  37800000   300.93573     -8008.7223      1181.5252     -4136.1005      11.782894    
  37900000   305.72845     -8077.8073      1144.5869     -4199.2651      67.227505    
  38000000   300.6597      -8036.6905      1133.3599     -4214.7022     -30.994515    
  38100000   302.88431     -8049.2691      1170.4583     -4170.2891      2.0846821    
  38200000   298.65102     -8037.0237      1139.5494     -4226.8084     -21.290681    
  38300000   300.44593     -8088.3673      1096.523      -4305.1276      5.4976065    
  38400000   312.14383     -8051.4055      1112.941      -4147.1402     -38.208845    
  38500000   302.13709     -8069.188       1112.4906     -4254.8576      7.9604787    
  38600000   298.4093      -8051.7433      1160.0019     -4223.237      -21.544486    
  38700000   304.4243      -8021.133       1174.6872     -4124.1528     -9.3852514    
  38800000   297.82496     -8052.5863      1184.257      -4205.0504     -9.305079     
  38900000   297.85309     -8059.896       1144.6652     -4251.7004     -22.514534    
  39000000   298.92213     -8050.3773      1143.4322     -4233.8548     -4.3218615    
  39100000   299.17506     -8013.3229      1121.4376     -4216.5332      11.220688    
  39200000   297.85363     -8047.2921      1106.743      -4277.0138     -29.883504    
  39300000   309.53151     -8070.0297      1142.4267     -4159.6391     -37.918918    
  39400000   304.61972     -8082.2041      1125.1824     -4232.9812      22.906248    
  39500000   299.90063     -8062.6047      1187.3695     -4193.3947      4.8182533    
  39600000   295.53838     -8071.1507      1148.2299     -4280.0895      20.477048    
  39700000   295.12424     -8066.3714      1115.776      -4311.4675      27.953918    
  39800000   296.3575      -8112.1393      1200.6745     -4261.3086      16.326711    
  39900000   308.01657     -8053.888       1144.0466     -4155.4248      24.5544      
  40000000   303.21884     -8078.8356      1191.9594     -4175.3628     -10.030741    
  40100000   300.40471     -8094.6736      1147.3324     -4260.9931      34.347658    
  40200000   302.82988     -8060.5975      1176.2617     -4176.3007      11.203786    
  40300000   297.03916     -8060.3494      1153.8829     -4250.2146      13.525751    
  40400000   300.33853     -8066.2238      1141.3507     -4239.1168      21.097965    
  40500000   292.24625     -8055.2957      1165.0936     -4276.8105     -17.259335    
  40600000   301.94131     -8070.3354      1132.3178     -4237.9285     -19.751833    
  40700000   297.23695     -8064.7351      1117.6702     -4289.0442      12.536108    
  40800000   298.58477     -8067.6509      1192.58       -4204.9975      5.4247947    
  40900000   294.63713     -8070.997       1177.0462     -4259.1788     -0.02442961   
  41000000   300.00294     -8066.684       1114.3618     -4269.5669      16.145501    
  41100000   299.78497     -8068.2074      1159.7951     -4227.6062     -26.914186    
  41200000   299.93507     -8048.9556      1145.0371     -4221.7701      14.115265    
  41300000   295.30756     -8055.5345      1166.2015     -4248.5658      15.473403    
  41400000   301.4169      -8065.2477      1135.5809     -4234.2673     -3.8757326    
  41500000   305.04382     -8079.536       1166.6038     -4185.0992      5.199782     
  41600000   301.95311     -8098.3142      1145.4647     -4252.6549      0.73926656   
  41700000   295.93555     -8049.9091      1139.7952     -4263.7309     -19.542964    
  41800000   305.2996      -8044.1558      1141.6684     -4172.3671     -3.2004269    
  41900000   294.38074     -8076.0527      1159.1446     -4284.429       2.0827762    
  42000000   300.48249     -8053.0234      1109.5216     -4256.458      -37.196118    
  42100000   302.95153     -8088.9794      1140.6882     -4239.1683     -3.3596054    
  42200000   304.64684     -8109.1402      1125.2799     -4259.5773     -13.722722    
  42300000   297.20777     -8055.0447      1146.2325     -4251.0525      3.9916653    
  42400000   300.27417     -8074.4928      1146.3341     -4242.9779      0.37566283   
  42500000   289.82197     -8090.2449      1155.2022     -4343.3299      18.858504    
  42600000   287.60797     -8065.3181      1149.481      -4343.9229      8.6169936    
  42700000   303.11306     -8086.4177      1131.9194     -4243.9308      3.5106777    
  42800000   301.13534     -8132.8153      1201.8057     -4238.1278     -4.014704     
  42900000   311.78166     -8154.785       1208.5645     -4158.1348      40.084701    
  43000000   305.53576     -8093.8488      1134.4404     -4227.1762      22.469665    
  43100000   303.9593      -8084.1969      1133.1756     -4232.8864     -14.8829      
  43200000   293.53261     -8068.4147      1140.9763     -4302.5435      0.84802891   
  43300000   294.47319     -8118.0239      1132.6189     -4352.099      -10.131123    
  43400000   304.20341     -8114.5972      1166.4834     -4227.796       27.550378    
  43500000   297.37543     -8164.819       1139.4444     -4366.1156      17.082651    
  43600000   308.01172     -8116.0601      1176.2365     -4185.4503     -21.912489    
  43700000   303.11076     -8064.7305      1133.3474     -4220.8363      6.4798512    
  43800000   299.7452      -8101.4054      1146.4126     -4274.5424      16.649608    
  43900000   303.19136     -8156.7551      1158.3653     -4287.1223     -28.770614    
  44000000   295.33415     -8104.3329      1154.5191     -4308.8089      38.38556     
  44100000   303.41797     -8171.8406      1097.5896     -4360.957      -16.531889    
  44200000   298.78361     -8105.5131      1112.1704     -4321.4911     -7.6976027    
  44300000   301.98346     -8108.7931      1129.4106     -4278.9165      12.420045    
  44400000   299.7971      -8128.1088      1154.1164     -4293.0778     -36.279228    
  44500000   291.72597     -8148.2365      1151.635      -4387.8624     -41.800938    
  44600000   299.24912     -8132.1785      1151.7406     -4304.4235     -21.847966    
  44700000   304.21363     -8172.8113      1171.2554     -4281.1467      3.8149085    
  44800000   305.2486      -8162.6147      1177.5818     -4255.3686      27.481097    
  44900000   302.04879     -8170.7761      1155.1865     -4314.5394      36.195753    
  45000000   301.78127     -8163.3978      1188.2404     -4276.4995      23.522742    
  45100000   294.64928     -8169.8982      1122.1282     -4412.8894      20.066981    
  45200000   297.51463     -8132.3915      1150.6669     -4321.2208      33.13408     
  45300000   293.26438     -8142.3118      1115.3181     -4404.4975      11.26788     
  45400000   298.96847     -8155.5722      1130.97       -4351.0977      26.642374    
  45500000   295.00937     -8152.5517      1141.9027     -4372.5484     -7.5967461    
  45600000   298.77329     -8136.4925      1179.8148     -4284.9184      0.92408867   
  45700000   295.08926     -8186.1773      1174.1794     -4373.1828     -15.526202    
  45800000   298.33        -8147.924       1114.4816     -4365.6472      38.00699     
  45900000   299.81767     -8139.4035      1114.2115     -4344.0935      27.732601    
  46000000   294.40584     -8148.4203      1126.4103     -4389.3064      13.02071     
  46100000   299.87607     -8149.2996      1182.1967     -4285.4821     -21.411402    
  46200000   297.94456     -8165.601       1160.3317     -4340.9209     -28.671901    
  46300000   298.2101      -8170.651       1143.5717     -4360.3563     -7.4711487    
  46400000   299.75048     -8154.6927      1160.796      -4313.399      -21.626193    
  46500000   310.97895     -8188.019       1140.2558     -4266.8557      8.860181     
  46600000   300.72689     -8169.5745      1145.0466     -4335.2987      32.452409    
  46700000   298.82654     -8186.521       1168.9335     -4345.3521     -22.768512    
  46800000   299.46921     -8180.0495      1147.8426     -4354.2244      18.878893    
  46900000   295.91056     -8159.6569      1106.3356     -4407.1618      25.445861    
  47000000   300.92677     -8170.885       1139.7361     -4340.1323      10.556525    
  47100000   301.28068     -8173.0002      1201.7956     -4277.0231     -18.090359    
  47200000   299.10121     -8183.9253      1146.1635     -4363.0701      1.2777567    
  47300000   300.68287     -8179.0015      1107.8695     -4382.2965      2.5830409    
  47400000   299.62929     -8162.4638      1159.7842     -4323.2656      1.4324263    
  47500000   292.11651     -8199.7801      1104.844      -4482.7047      44.111714    
  47600000   305.71972     -8204.878       1156.1753     -4314.8255     -14.541654    
  47700000   303.99539     -8217.5336      1158.3311     -4340.7449      26.971748    
  47800000   310.25257     -8207.4345      1125.0313     -4307.9913      16.85075     
  47900000   295.63585     -8205.0645      1112.4414     -4448.9202      12.154977    
  48000000   298.53549     -8216.8794      1191.2999     -4355.9468     -29.082059    
  48100000   296.12951     -8167.2557      1146.171      -4372.9672      54.270377    
  48200000   301.16002     -8202.8857      1157.941      -4351.8423     -28.291143    
  48300000   303.90113     -8198.1971      1178.5726     -4302.0099     -27.287425    
  48400000   303.06856     -8189.3678      1121.5893     -4357.6092     -50.434808    
  48500000   295.54341     -8197.7872      1111.6717     -4443.2392      9.711455     
  48600000   303.54411     -8187.7907      1149.5449     -4323.8238      13.67698     
  48700000   308.61399     -8224.0795      1158.689      -4305.6314      30.583452    
  48800000   293.26034     -8216.0874      1124.4228     -4469.2045      29.107909    
  48900000   304.53433     -8151.1111      1097.579      -4330.2551      36.821456    
  49000000   290.24759     -8203.0218      1121.081      -4486.422       17.047256    
  49100000   311.3156      -8219.5203      1146.9881     -4288.6142     -19.111773    
  49200000   300.47339     -8219.3068      1151.3969     -4380.9477      2.7428461    
  49300000   299.88631     -8193.552       1123.6205     -4388.2192      27.844575    
  49400000   303.08672     -8191.0241      1152.0408     -4328.6515     -10.107319    
  49500000   295.82054     -8217.2963      1133.2049     -4438.737      -29.015205    
  49600000   299.88091     -8221.5682      1169.4202     -4370.4839     -24.952554    
  49700000   306.86939     -8178.4121      1140.6511     -4293.6029      19.235695    
  49800000   295.33865     -8180.1149      1114.2293     -4424.8404      30.298609    
  49900000   300.88235     -8198.0228      1146.3779     -4361.0256      19.85937     
  50000000   294.56337     -8186.8494      1146.0206     -4406.7164     -24.010844    
  50100000   298.95987     -8187.272       1141.0505     -4372.7937     -1.3211536    
  50200000   300.7568      -8180.7486      1156.0278     -4335.2241     -10.87958     
  50300000   298.28373     -8178.9772      1137.7548     -4373.8409      9.4430777    
  50400000   299.65875     -8200.3329      1113.8193     -4406.8361      26.496351    
  50500000   300.33311     -8215.5246      1153.8472     -4375.9696      19.558426    
  50600000   301.00378     -8207.7008      1145.4088     -4370.5867     -23.003065    
  50700000   299.92037     -8177.1831      1140.4676     -4354.6985      8.3556688    
  50800000   304.97424     -8222.4384      1124.36       -4370.8675      42.109659    
  50900000   296.83073     -8179.6892      1180.2797     -4345.0214      9.2925321    
  51000000   298.55485     -8194.1582      1195.0132     -4329.3392      19.007973    
  51100000   297.70031     -8225.0076      1120.905      -4441.9384     -18.413279    
  51200000   296.91758     -8194.5016      1102.1556     -4437.1812      14.377963    
  51300000   293.17741     -8223.3311      1119.7511     -4481.8615      13.06972     
  51400000   293.88378     -8208.6948      1086.3894     -4494.2703      51.49897     
  51500000   299.58417     -8215.5423      1115.9141     -4420.6176      8.3818097    
  51600000   301.5559      -8208.5272      1139.1409     -4372.7438      55.518937    
  51700000   308.66121     -8204.571       1138.0339     -4306.3558      8.9239523    
  51800000   300.38542     -8195.4848      1109.1684     -4400.1408      3.1089352    
  51900000   296.94683     -8210.1799      1096.7814     -4457.9722      36.919388    
  52000000   293.55977     -8203.5217      1112.3997     -4465.9843     -37.090482    
  52100000   292.46169     -8213.3099      1159.7857     -4438.206      -43.796291    
  52200000   301.37287     -8202.4238      1153.0274     -4354.3906     -15.554572    
  52300000   304.91052     -8183.1996      1128.4685     -4328.0901      14.61288     
  52400000   293.26271     -8159.9492      1111.0308     -4426.437      -29.560664    
  52500000   302.93795     -8213.8165      1163.2092     -4341.6059     -8.3671413    
  52600000   290.21161     -8208.6066      1152.6869     -4460.7226     -3.8288611    
  52700000   294.4753      -8178.5109      1117.2546     -4427.9315      35.993684    
  52800000   299.66019     -8186.5101      1135.8706     -4370.9492      21.899572    
  52900000   308.9999      -8189.5061      1160.0152     -4266.281       32.412544    
  53000000   302.04947     -8169.0881      1104.8753     -4363.1566     -0.97359058   
  53100000   302.25303     -8197.997       1103.7673     -4391.3531     -36.274224    
  53200000   305.88445     -8201.289       1161.3392     -4304.5995      21.097358    
  53300000   301.92909     -8201.6551      1194.9084     -4306.767      -2.0636609    
  53400000   297.51597     -8195.0965      1146.393      -4388.1877      42.085262    
  53500000   298.49448     -8169.6824      1190.1214     -4310.295      -46.587116    
  53600000   299.54007     -8185.5702      1181.103      -4325.8511     -41.729814    
  53700000   300.19884     -8179.621       1149.1142     -4345.9996     -6.2588474    
  53800000   301.92967     -8188.6069      1163.6669     -4324.955      -9.1480795    
  53900000   297.61288     -8122.3831      1148.3902     -4312.6105      35.296821    
  54000000   298.77793     -8141.4724      1201.3308     -4268.3408      23.178101    
  54100000   298.72417     -8181.0431      1166.8299     -4342.8932      7.345364     
  54200000   297.18183     -8188.2394      1163.4782     -4367.2335      11.433844    
  54300000   307.60269     -8180.9486      1125.6058     -4304.6272      20.620691    
  54400000   301.66462     -8199.1014      1120.7932     -4380.6934     -15.149515    
  54500000   297.86953     -8219.5311      1145.6533     -4410.2004      2.0128989    
  54600000   296.12602     -8232.2677      1151.1675     -4433.014       39.322121    
  54700000   295.26896     -8226.6257      1131.7793     -4454.4243     -14.601773    
  54800000   301.23993     -8197.2326      1130.6291     -4372.7864      11.820675    
  54900000   298.24552     -8234.0458      1113.078      -4453.9281      26.410933    
  55000000   297.04874     -8202.7967      1135.7096     -4410.7494     -11.29133     
  55100000   299.20998     -8225.323       1194.8615     -4354.7971     -6.7174021    
  55200000   295.45707     -8197.0957      1182.6544     -4372.337       21.665586    
  55300000   302.19921     -8187.009       1169.9005     -4314.7132     -16.427789    
  55400000   300.09792     -8170.5038      1123.3888     -4363.5103     -6.7373814    
  55500000   301.72657     -8212.9103      1147.8642     -4366.8773     -11.765608    
  55600000   308.09847     -8201.1054      1117.0689     -4328.8875     -22.575234    
  55700000   303.31047     -8192.9749      1151.513      -4329.1292     -5.4075336    
  55800000   292.01255     -8197.6802      1125.8746     -4460.5039     -18.097112    
  55900000   299.2416      -8194.1573      1134.8584     -4383.3518     -5.1707672    
  56000000   297.5537      -8196.6886      1156.5424     -4379.293       12.088523    
  56100000   305.95608     -8225.5559      1133.6784     -4355.8867      33.684996    
  56200000   300.03036     -8228.1268      1152.8787     -4392.2475     -25.535345    
  56300000   310.45529     -8214.2792      1149.1332     -4288.9212      42.784661    
  56400000   297.08601     -8208.2428      1151.9442     -4399.6277     -16.812293    
  56500000   296.0343      -8177.2271      1147.1268     -4382.8342      25.027       
  56600000   296.11276     -8189.0621      1137.9925     -4403.1019     -5.9329369    
  56700000   301.71447     -8183.8777      1130.0609     -4355.7563     -32.052746    
  56800000   303.74263     -8190.4749      1168.8494     -4305.4282     -7.7739522    
  56900000   306.15465     -8165.1201      1178.1944     -4249.1592      0.10104674   
  57000000   300.05611     -8185.19        1107.3622     -4394.5969      7.5701087    
  57100000   308.66589     -8184.6348      1129.6688     -4294.7429     -2.6152371    
  57200000   299.22672     -8228.589       1113.2241     -4439.5508      19.08752     
  57300000   296.39438     -8173.2612      1130.5682     -4392.2069      25.018851    
  57400000   303.55621     -8138.4897      1174.6133     -4249.3462      35.342945    
  57500000   296.25731     -8200.0167      1121.0872     -4429.6692     -53.292974    
  57600000   298.67753     -8162.7353      1122.8953     -4368.937      -21.24909     
  57700000   303.7744      -8212.2604      1132.235      -4363.5441     -6.3440747    
  57800000   298.35268     -8215.8846      1186.2616     -4361.625      -18.837713    
  57900000   304.56371     -8199.4118      1159.0563     -4316.8157      31.173685    
  58000000   303.62535     -8208.7929      1131.2806     -4362.3638     -16.025208    
  58100000   297.02818     -8192.4182      1190.8455     -4345.4189     -8.8673928    
  58200000   292.59952     -8167.6615      1114.2787     -4436.832      -12.818219    
  58300000   301.17302     -8185.7389      1125.8295     -4366.6907     -19.415716    
  58400000   304.27148     -8180.263       1147.9172     -4311.4193      30.502408    
  58500000   306.75942     -8187.5495      1172.713      -4271.6618     -18.88796     
  58600000   297.89353     -8179.9563      1150.7312     -4365.3329      42.9515      
  58700000   295.74442     -8233.486       1122.7267     -4466.0855     -16.666101    
  58800000   299.22094     -8214.3868      1151.8845     -4386.74        31.509192    
  58900000   296.87669     -8183.869       1140.895      -4388.1749      31.445823    
  59000000   297.62372     -8182.7456      1170.7818     -4350.4844      26.506686    
  59100000   291.80878     -8170.1821      1151.8341     -4408.8684      1.285435     
  59200000   302.99254     -8204.1193      1176.1605     -4318.4693      15.895955    
  59300000   298.26412     -8196.1179      1195.12       -4333.7918      44.046988    
  59400000   295.9912      -8180.4396      1149.4008     -4384.1582      25.537699    
  59500000   295.33212     -8163.9288      1193.6585     -4329.2835      8.3311544    
  59600000   307.01911     -8190.6988      1133.1117     -4312.0902      22.848015    
  59700000   299.06263     -8221.3264      1166.0155     -4380.9642     -34.233603    
  59800000   296.27659     -8192.104       1200.0744     -4342.5969     -2.0878206    
  59900000   307.11948     -8188.609       1152.4645     -4289.75        5.1825648    
  60000000   299.71989     -8219.244       1122.8986     -4416.1213      31.581967    
  60100000   300.0929      -8201.8146      1169.5896     -4348.6652      23.155597    
  60200000   299.70676     -8156.1392      1108.8524     -4367.1801      17.648527    
  60300000   296.78518     -8187.0527      1110.4003     -4422.6717     -14.642612    
  60400000   295.93374     -8176.2812      1116.1558     -4413.7586     -12.370954    
  60500000   303.46844     -8181.1424      1153.1938     -4314.2033     -4.9735821    
  60600000   305.97774     -8207.0429      1175.347      -4295.5113      4.0738477    
  60700000   300.29053     -8197.8566      1106.5541     -4405.9754      26.994071    
  60800000   303.35582     -8185.6791      1123.573      -4349.3678     -10.247133    
  60900000   298.37592     -8188.8211      1112.432      -4408.1832      11.284143    
  61000000   298.53135     -8163.2217      1136.0857     -4357.5403     -13.671955    
  61100000   296.12226     -8131.6704      1144.6505     -4338.9673     -6.2588447    
  61200000   299.60734     -8173.9706      1169.774      -4324.9789      10.313058    
  61300000   298.67968     -8212.5342      1164.3476     -4377.2644      19.630555    
  61400000   302.92212     -8204.6661      1123.1813     -4372.6249      7.0061551    
  61500000   301.86337     -8160.5215      1137.8919     -4323.2375     -29.916949    
  61600000   309.69609     -8235.3445      1155.6104     -4310.2985      25.835193    
  61700000   299.76116     -8116.3349      1155.2208     -4280.5208     -29.129578    
  61800000   297.1504      -8175.6753      1162.3562     -4356.0723     -22.691075    
  61900000   303.72206     -8169.4001      1145.31       -4308.0768     -3.019594     
  62000000   303.04367     -8176.1249      1149.7866     -4316.3915      1.1168288    
  62100000   299.89218     -8167.9207      1127.8194     -4358.3365      27.777489    
  62200000   306.27229     -8217.1805      1155.2336     -4323.1284     -38.915356    
  62300000   315.7594      -8201.8651      1099.624      -4278.5846      0.20357537   
  62400000   293.5113      -8155.1379      1134.6909     -4395.7428     -21.310907    
  62500000   304.6547      -8181.2968      1113.4367     -4343.5067     -31.522616    
  62600000   298.28893     -8200.7964      1106.3441     -4427.0244      24.094709    
  62700000   292.42658     -8195.6591      1139.1631     -4441.4918      36.774989    
  62800000   297.17283     -8211.9895      1097.8468     -4456.6954     -9.7425918    
  62900000   300.08293     -8172.5756      1175.7404     -4313.3645     -34.751583    
  63000000   292.39232     -8168.1405      1183.7024     -4369.7402      52.790087    
  63100000   294.42332     -8197.4193      1133.3967     -4431.1626     -8.9329497    
  63200000   301.819       -8206.1544      1177.4272     -4329.7318      10.179823    
  63300000   304.48261     -8203.1639      1140.653      -4339.6965      16.364444    
  63400000   303.77039     -8159.1887      1138.3351     -4304.4081     -31.196168    
  63500000   303.69794     -8186.1098      1168.1949     -4302.1173      22.807979    
  63600000   303.91187     -8210.438       1160.4725     -4332.2548     -9.96704      
  63700000   299.9917      -8201.5704      1174.2997     -4344.6159      39.059002    
  63800000   302.92913     -8185.1835      1136.9308     -4339.33       -25.345447    
  63900000   299.65771     -8190.8837      1152.2266     -4358.9889      11.500586    
  64000000   305.11437     -8196.9219      1117.147      -4351.311       4.2581035    
  64100000   307.82567     -8182.3274      1152.488      -4277.1299      28.169432    
  64200000   309.75836     -8212.7639      1171.9956     -4270.7758      16.469462    
  64300000   302.54332     -8180.7182      1137.6162     -4337.6294     -10.722241    
  64400000   296.5073      -8168.0998      1119.3213     -4397.2827      25.463142    
  64500000   295.87209     -8185.5228      1161.4256     -4378.2816     -25.284589    
  64600000   300.78784     -8170.5816      1174.5133     -4306.294       28.0539      
  64700000   300.85181     -8167.4984      1165.0533     -4312.0988      1.7467789    
  64800000   302.74832     -8215.9757      1204.1335     -4304.5365      12.197342    
  64900000   300.32546     -8182.2245      1138.8227     -4357.7624     -13.931425    
  65000000   297.00501     -8198.2968      1129.6824     -4412.6679     -9.2157715    
  65100000   300.54736     -8218.2858      1150.1075     -4380.5544     -22.573993    
  65200000   307.89351     -8199.5173      1157.6498     -4288.5513     -12.355607    
  65300000   292.0271      -8154.1907      1143.8378     -4398.921       6.8002314    
  65400000   306.49003     -8189.8547      1117.883      -4331.206       1.2591287    
  65500000   298.303       -8175.8189      1173.9532     -4334.312       14.430147    
  65600000   298.07562     -8206.6829      1115.8937     -4425.2689     -27.620877    
  65700000   300.76929     -8168.244       1170.7115     -4307.9241     -20.007247    
  65800000   298.44464     -8177.6576      1135.7031     -4373.1342     -4.9671131    
  65900000   295.37669     -8192.1401      1177.7241     -4373.0306     -22.191974    
  66000000   299.24249     -8188.2156      1179.5763     -4332.6841     -11.810032    
  66100000   303.18032     -8173.0444      1104.2726     -4357.6029      13.720251    
  66200000   299.98906     -8169.5456      1149.381      -4337.5334      1.6271813    
  66300000   296.25214     -8180.9865      1129.447      -4402.3254     -5.5767042    
  66400000   297.52279     -8207.3632      1141.4423     -4405.3442     -14.842919    
  66500000   304.85648     -8186.6849      1133.9964     -4326.5308      34.096754    
  66600000   301.15276     -8208.4728      1141.9152     -4373.52        12.345822    
  66700000   299.19072     -8221.9987      1181.6556     -4364.8509      1.3846913    
  66800000   295.30952     -8174.7164      1159.1064     -4374.8252      8.3951777    
  66900000   300.90645     -8197.8743      1138.8285     -4368.2109      7.7797539    
  67000000   303.58027     -8217.4557      1138.9798     -4363.7305     -28.837527    
  67100000   300.1694      -8207.1279      1139.8414     -4383.0425      24.174688    
  67200000   303.58032     -8177.0271      1139.2784     -4323.0028     -23.810323    
  67300000   304.42576     -8187.2555      1135.7697     -4329.1797     -2.2081299    
  67400000   291.88838     -8225.6137      1106.7166     -4508.7056      8.3646815    
  67500000   304.37096     -8213.6641      1146.5721     -4345.2759     -0.58121024   
  67600000   296.91377     -8213.9008      1158.341      -4400.4292      18.831229    
  67700000   296.76888     -8175.139       1106.2822     -4415.0218      19.319836    
  67800000   297.66249     -8215.2188      1136.9162     -4416.4765      14.273028    
  67900000   307.37148     -8205.0178      1143.0187     -4313.3511      12.476745    
  68000000   301.67959     -8195.3745      1161.0635     -4336.5623     -26.645072    
  68100000   297.4643      -8153.472       1172.692      -4320.7263     -21.396222    
  68200000   307.47672     -8169.882       1160.0033     -4260.2896      8.6216171    
  68300000   307.50754     -8256.4996      1133.16       -4373.4749     -13.700009    
  68400000   296.22644     -8223.007       1111.0167     -4463.006      -17.695372    
  68500000   307.42842     -8229.6634      1137.6591     -4342.8472      31.407037    
  68600000   303.27735     -8222.1183      1166.2333     -4343.8485     -38.607138    
  68700000   306.63299     -8193.8577      1116.5662     -4335.2474      14.161096    
  68800000   291.61562     -8217.4873      1150.0834     -4459.6515      3.1290023    
  68900000   299.96224     -8197.375       1135.5152     -4379.4684      13.794313    
  69000000   305.0269      -8238.6652      1177.8012     -4333.1822      64.420495    
  69100000   293.20604     -8203.7198      1103.0992     -4478.646      -20.522653    
  69200000   302.61376     -8209.5719      1189.6171     -4313.8523      29.872626    
  69300000   299.52766     -8233.2365      1162.1675     -4392.5639      7.0870485    
  69400000   297.21603     -8225.168       1159.9415     -4407.393       9.5356694    
  69500000   304.86471     -8203.2155      1129.1166     -4347.8675      21.318931    
  69600000   304.5201      -8212.1196      1105.8197     -4383.1502      60.842781    
  69700000   298.48848     -8210.1165      1082.6346     -4458.2695      5.8960627    
  69800000   303.911       -8199.5712      1121.3845     -4360.4838      5.1685399    
  69900000   304.57951     -8236.2628      1125.4844     -4387.0974     -20.628654    
  70000000   308.71207     -8220.1074      1131.6335     -4327.8378     -0.59796719   
  70100000   296.36322     -8241.6654      1112.5419     -4478.9161     -17.313717    
  70200000   311.66784     -8225.4105      1128.7485     -4309.5942      35.485877    
  70300000   311.07908     -8203.5132      1184.5065     -4237.2037      33.049646    
  70400000   297.83074     -8207.2876      1091.7967     -4452.1604      38.872092    
  70500000   302.07221     -8251.9189      1124.1962     -4426.463      -8.5655738    
  70600000   304.50247     -8213.1841      1122.4279     -4367.7641      11.343336    
  70700000   297.88992     -8207.8819      1185.1095     -4358.9126     -27.574587    
  70800000   301.79856     -8206.8611      1146.9759     -4361.0726     -21.854474    
  70900000   305.15366     -8247.5801      1138.3899     -4380.3749     -12.570537    
  71000000   309.85411     -8205.4739      1132.4416     -4302.1836      2.1317633    
  71100000   301.67508     -8215.8944      1161.4992     -4356.6868      18.521847    
  71200000   298.85971     -8234.5871      1154.2136     -4407.8415      19.386873    
  71300000   293.6227      -8221.4426      1120.8567     -4474.8854     -21.923216    
  71400000   302.5978      -8232.5511      1113.6792     -4412.9123     -5.979616     
  71500000   290.59933     -8228.3243      1181.946      -4447.7142      5.1373684    
  71600000   300.90727     -8236.2039      1163.05       -4382.3117     -27.346314    
  71700000   300.22651     -8229.2451      1122.8964     -4421.5941     -5.8812951    
  71800000   295.95061     -8210.8733      1177.6868     -4386.6689     -31.293082    
  71900000   293.30494     -8223.4323      1166.903      -4433.6704      7.7059386    
  72000000   299.67461     -8185.562       1138.5333     -4367.2094     -22.152437    
  72100000   300.96973     -8216.0513      1108.776      -4415.8745      3.5381875    
  72200000   291.67591     -8217.1448      1125.4854     -4483.3679     -25.9075      
  72300000   298.36418     -8220.794       1139.4682     -4413.2249      13.85072     
  72400000   304.42626     -8233.6229      1188.7247     -4322.5876      31.52621     
  72500000   303.50054     -8210.5842      1145.2459     -4351.306      -8.4714715    
  72600000   291.66887     -8210.2713      1165.6684     -4436.3745      50.084131    
  72700000   301.32687     -8185.3668      1153.2407     -4337.5316     -45.29724     
  72800000   300.31261     -8215.6179      1176.7858     -4353.3075     -12.801021    
  72900000   300.81098     -8245.5417      1182.0587     -4373.5018     -1.5053794    
  73000000   307.15477     -8173.1226      1112.2427     -4314.1698      30.84266     
  73100000   306.01101     -8218.0695      1107.2233     -4374.3641      44.613573    
  73200000   297.3306      -8205.7771      1180.7515     -4366.1675      24.110113    
  73300000   301.57243     -8218.709       1145.9965     -4375.9221      15.435285    
  73400000   297.91502     -8237.1704      1116.9312     -4456.1549      19.400753    
  73500000   310.67974     -8218.3069      1141.3362     -4298.7388      9.2056679    
  73600000   298.06717     -8253.3332      1128.8107     -4459.0776     -20.022733    
  73700000   295.27531     -8241.4392      1176.7585     -4424.2019      22.015111    
  73800000   303.24504     -8241.758       1182.9489     -4347.0615      1.8507617    
  73900000   300.86781     -8249.708       1125.0756     -4434.143       16.659559    
  74000000   308.24977     -8232.3301      1121.7956     -4354.0324      7.4685514    
  74100000   306.03175     -8243.5202      1139.1511     -4367.7016     -27.653605    
  74200000   300.71381     -8257.7612      1120.5268     -4448.1222     -36.34282     
  74300000   300.42207     -8208.3693      1158.9756     -4362.8903     -22.149227    
  74400000   301.05948     -8234.6606      1155.7082     -4386.7491      22.608514    
  74500000   303.15339     -8231.8321      1141.4036     -4379.5005      50.531842    
  74600000   303.66956     -8215.5819      1154.1447     -4345.8933     -18.488252    
  74700000   302.51213     -8196.0399      1163.5017     -4327.3447      10.17666     
  74800000   292.26505     -8225.2468      1143.5183     -4468.1687     -31.887329    
  74900000   298.70023     -8203.1375      1145.5372     -4386.4944     -16.833858    
  75000000   296.03367     -8199.1138      1152.775      -4399.0784     -38.157956    
  75100000   301.66872     -8214.3744      1136.6939     -4380.029      -14.625446    
  75200000   301.69836     -8216.3096      1146.6023     -4371.7908      16.625134    
  75300000   295.71711     -8210.6251      1099.1106     -4467.0849      19.081033    
  75400000   303.5318      -8180.6379      1186.9599     -4279.366      -6.4164356    
  75500000   296.75996     -8208.8733      1097.8981     -4457.2199      20.575333    
  75600000   301.18725     -8224.8146      1088.2247     -4443.2439     -5.8399047    
  75700000   298.48589     -8245.48        1127.7854     -4448.5053     -35.973436    
  75800000   298.62531     -8233.545       1122.1396     -4440.9695      31.191092    
  75900000   304.40608     -8190.8301      1105.9544     -4362.7456      20.89363     
  76000000   302.44352     -8184.1125      1117.3658     -4362.1667      29.431514    
  76100000   298.76446     -8211.6358      1115.6992     -4424.2562     -21.268684    
  76200000   296.26081     -8236.3021      1120.8683     -4466.1422     -40.549384    
  76300000   304.62415     -8244.5845      1147.3655     -4373.1389     -30.183616    
  76400000   304.12476     -8204.4832      1115.5222     -4369.3465      15.704545    
  76500000   301.70886     -8211.9679      1133.0375     -4380.92        59.074177    
  76600000   305.05172     -8201.7547      1182.104      -4291.7469      26.721646    
  76700000   309.98799     -8210.1011      1159.4616     -4278.5935      4.8761775    
  76800000   299.23227     -8273.1421      1151.4463     -4445.8321     -1.5045208    
  76900000   297.76391     -8255.9358      1155.2247     -4437.9781     -0.93865675   
  77000000   294.18778     -8252.6934      1134.1554     -4487.7844      24.064847    
  77100000   301.71606     -8233.1955      1147.0872     -4388.0336      20.871973    
  77200000   299.37637     -8254.6931      1111.1232     -4466.4176     -37.201201    
  77300000   302.13933     -8221.0659      1124.8392     -4394.3669      27.045312    
  77400000   303.59308     -8251.1482      1152.245      -4384.0433     -3.5383089    
  77500000   301.14411     -8213.9426      1165.61       -4355.3724      4.8744534    
  77600000   293.37748     -8239.7688      1175.1984     -4441.0628      23.941231    
  77700000   292.4098      -8233.3796      1135.9186     -4482.6068     -6.0212543    
  77800000   302.93324     -8208.3422      1195.638      -4303.7449      3.8757509    
  77900000   299.3549      -8255.1574      1156.9229     -4421.2742      19.128687    
  78000000   304.46606     -8239.7261      1169.7191     -4347.3405     -15.567139    
  78100000   294.80765     -8216.1585      1103.2708     -4476.5908      40.063452    
  78200000   303.82035     -8225.5306      1159.1337     -4349.5047      2.0450991    
  78300000   297.49662     -8223.1615      1170.4548     -4392.364       2.1626904    
  78400000   299.69607     -8194.5574      1192.7898     -4321.7564     -5.215858     
  78500000   294.93774     -8220.2645      1142.3985     -4440.4059      19.247128    
  78600000   307.01948     -8236.8757      1115.7923     -4375.5832     -4.2424528    
  78700000   295.23823     -8225.0256      1134.2526     -4450.6258      4.4518814    
  78800000   297.7158      -8187.3191      1084.7006     -4440.3158     -19.604181    
  78900000   296.19619     -8221.0645      1187.669      -4384.6817      27.738596    
  79000000   303.04383     -8222.0657      1166.3177     -4345.7998      20.510565    
  79100000   294.79284     -8250.3709      1160.4186     -4453.7879      64.181197    
  79200000   290.0448      -8252.0728      1121.7298     -4536.6377      31.905516    
  79300000   297.64421     -8220.7296      1140.5499     -4418.5172      31.758088    
  79400000   301.68346     -8247.3868      1139.6108     -4409.9927     -1.4171307    
  79500000   299.48237     -8251.9308      1149.4911     -4424.3394     -2.1350434    
  79600000   302.27633     -8276.6677      1143.976      -4429.6068     -5.6844326    
  79700000   302.7233      -8283.0638      1173.1654     -4402.8165      7.2714173    
  79800000   303.38078     -8239.8398      1087.2457     -4439.6326     -3.8285413    
  79900000   297.96844     -8208.4891      1117.9296     -4425.9975     -40.958346    
  80000000   293.40513     -8261.7543      1173.3555     -4464.6439      1.2813334    
  80100000   304.27977     -8241.2354      1181.3743     -4338.8605      35.917472    
  80200000   294.40931     -8247.1532      1154.2482     -4460.1702      10.626133    
  80300000   304.90168     -8223.7771      1121.9391     -4375.276      -4.8209778    
  80400000   302.31221     -8225.969       1162.2621     -4360.3011      53.549558    
  80500000   299.31233     -8257.2494      1151.0464     -4429.6235      15.038568    
  80600000   299.11178     -8228.2645      1171.83       -4381.6483     -16.992992    
  80700000   299.11081     -8210.2538      1172.3472     -4363.1291     -41.265658    
  80800000   299.15768     -8253.2954      1145.5938     -4432.505      -40.036284    
  80900000   302.72793     -8216.8413      1113.2224     -4396.4955      39.769804    
  81000000   297.8943      -8270.5809      1168.9471     -4437.7348      12.603698    
  81100000   296.95668     -8241.3985      1147.4587     -4438.4254     -10.264011    
  81200000   298.69306     -8199.6606      1139.4367     -4389.182       5.590915     
  81300000   301.72471     -8269.4898      1138.4436     -4432.8941      9.1120893    
  81400000   307.3045      -8270.7596      1146.1179     -4376.5927      3.0057711    
  81500000   295.91704     -8232.1216      1176.2606     -4409.6435     -29.756478    
  81600000   294.52662     -8251.2525      1183.1661     -4434.3027      29.94147     
  81700000   287.48908     -8269.6258      1138.67       -4560.1047     -0.21464064   
  81800000   299.9261      -8211.3073      1210.9425     -4318.2966      15.067329    
  81900000   299.41589     -8242.7734      1148.4307     -4416.837      -12.883889    
  82000000   302.05804     -8260.1266      1133.7265     -4425.2672     -6.9812557    
  82100000   304.68745     -8279.417       1118.7963     -4435.9744      20.904675    
  82200000   302.76262     -8272.0715      1136.3742     -4428.2638     -2.3102812    
  82300000   297.9072      -8290.5308      1158.7978     -4467.7186      10.856822    
  82400000   302.5203      -8274.0006      1141.6696     -4427.0643      1.4261129    
  82500000   290.91797     -8271.0434      1134.796      -4534.7338      17.640817    
  82600000   298.99213     -8246.722       1107.1228     -4465.883       6.0444715    
  82700000   298.46991     -8250.9512      1178.8238     -4403.081      -13.349955    
  82800000   304.05572     -8266.9093      1142.6509     -4405.2614      30.92528     
  82900000   301.9045      -8261.41        1149.5417     -4412.1084      21.970534    
  83000000   308.40797     -8259.1111      1150.1221     -4351.0722     -11.47618     
  83100000   297.06801     -8251.1138      1121.5876     -4473.0163     -15.273681    
  83200000   304.2196      -8210.6703      1106.6533     -4383.5545     -13.520002    
  83300000   301.22503     -8269.6252      1143.9005     -4432.0409      4.3872026    
  83400000   293.13868     -8204.0739      1203.5713     -4379.1304     -24.571038    
  83500000   297.64851     -8258.5804      1189.8577     -4407.0217      20.668052    
  83600000   295.52235     -8245.9432      1146.7231     -4456.5322      10.317801    
  83700000   297.64067     -8242.1635      1122.1872     -4458.3454     -32.57607     
  83800000   298.90475     -8243.5273      1132.5736     -4438.0188      43.559753    
  83900000   292.8413      -8244.6671      1151.1191     -4474.8351      29.901439    
  84000000   300.48097     -8251.7051      1139.9916     -4424.6834      27.80496     
  84100000   295.48258     -8240.695       1122.4222     -4475.9404      14.680191    
  84200000   294.62596     -8253.5297      1151.5049     -4467.3528      21.349514    
  84300000   299.32864     -8257.3041      1214.0017     -4366.577      -13.559246    
  84400000   304.06527     -8230.487       1151.505      -4359.8995     -54.911485    
  84500000   293.91033     -8257.4945      1144.6686     -4484.5533     -32.304208    
  84600000   301.74404     -8222.2345      1110.9705     -4412.9389     -13.964686    
  84700000   297.71717     -8265.5646      1135.351      -4467.8985      22.754382    
  84800000   300.55877     -8263.4586      1147.2058     -4428.5269      0.61636845   
  84900000   299.16301     -8246.5961      1126.2742     -4445.0776      1.5599344    
  85000000   303.20769     -8276.8451      1128.9955     -4436.436      -11.682087    
  85100000   292.99263     -8267.0074      1102.5758     -4544.3654     -15.263734    
  85200000   299.85666     -8256.717       1108.0988     -4467.1709      64.941137    
  85300000   308.69321     -8227.3238      1080.2932     -4386.5632      3.4809973    
  85400000   292.50732     -8264.9687      1106.9291     -4542.3133      20.514224    
  85500000   297.80184     -8222.6581      1145.9968     -4413.5892     -12.665044    
  85600000   296.58594     -8267.7745      1142.562      -4473.0135     -41.115808    
  85700000   297.84864     -8260.1109      1140.1503     -4456.47       -23.639757    
  85800000   300.3154      -8274.9249      1157.8517     -4431.5237     -17.33292     
  85900000   297.03983     -8208.9993      1128.1619     -4424.5795     -19.279932    
  86000000   297.56389     -8235.2702      1129.0288     -4445.2971     -16.267395    
  86100000   297.21055     -8257.8826      1162.5583     -4437.5397     -7.9460385    
  86200000   299.68401     -8214.4135      1131.5894     -4402.9207      5.259718     
  86300000   296.68207     -8257.4319      1144.2585     -4460.1147      11.105494    
  86400000   296.79272     -8240.0525      1177.3558     -4408.6486      27.348732    
  86500000   303.38592     -8284.8543      1181.167      -4390.6799     -17.024923    
  86600000   296.7574      -8263.4459      1149.6028     -4460.1109      51.390173    
  86700000   299.63635     -8220.7523      1137.3112     -4403.964      -13.108338    
  86800000   296.54391     -8250.9826      1123.3776     -4475.7818      12.961414    
  86900000   299.81102     -8254.9708      1190.3272     -4383.6044     -15.813156    
  87000000   295.82384     -8227.5357      1145.7011     -4436.4506      26.742862    
  87100000   303.87239     -8252.5097      1125.7905     -4409.3615      36.046405    
  87200000   296.45475     -8250.2938      1162.1195     -4437.1485     -2.1075482    
  87300000   295.04291     -8266.6364      1111.7901     -4516.4457      21.515069    
  87400000   302.60244     -8228.2313      1104.4058     -4417.8243      18.291943    
  87500000   302.27333     -8227.3223      1143.3081     -4380.956       41.043839    
  87600000   298.86239     -8231.5175      1142.0732     -4416.8882      17.190602    
  87700000   298.60699     -8273.796       1128.1655     -4475.3583      2.7450926    
  87800000   299.68182     -8259.968       1151.4828     -4428.6014      7.4555082    
  87900000   300.94681     -8269.1609      1155.4712     -4422.494      -15.587862    
  88000000   296.99126     -8210.7589      1125.9202     -4429.015      -3.9522364    
  88100000   300.85437     -8276.4773      1189.3574     -4396.7507     -49.922679    
  88200000   292.0968      -8267.2847      1142.7824     -4512.447      -11.639606    
  88300000   299.14922     -8240.092       1153.9893     -4410.9817      47.686453    
  88400000   299.15017     -8262.5091      1104.8907     -4482.4889      23.194786    
  88500000   305.51407     -8243.3899      1129.0825     -4382.2692      24.494821    
  88600000   295.6772      -8251.6982      1106.9477     -4500.6778     -21.691298    
  88700000   291.20312     -8268.3078      1134.6877     -4529.5566      0.37366648   
  88800000   307.44591     -8236.319       1106.6305     -4380.3749     -2.9636528    
  88900000   297.62795     -8291.1459      1149.9169     -4479.7119      14.882091    
  89000000   298.01497     -8218.3415      1178.7508     -4374.6127     -20.348225    
  89100000   301.003       -8269.7565      1132.5695     -4445.4887     -5.8509094    
  89200000   307.30032     -8222.8601      1139.2906     -4335.5579      39.839205    
  89300000   296.68376     -8264.7243      1127.4793     -4484.1712     -22.469665    
  89400000   302.95854     -8241.3808      1109.4328     -4422.7623     -18.692382    
  89500000   300.63123     -8219.2574      1144.4338     -4386.4498     -0.29967755   
  89600000   300.5204      -8213.0525      1129.02       -4396.6499      2.8596456    
  89700000   299.03307     -8251.7228      1136.2611     -4441.3793      9.0522078    
  89800000   299.38955     -8194.3705      1167.6524     -4349.4479      9.0347474    
  89900000   299.53498     -8223.8121      1143.4947     -4401.7468      49.189176    
  90000000   292.99469     -8233.4595      1158.3546     -4455.0204     -18.41929     
  90100000   302.26349     -8205.5232      1152.8091     -4349.7439     -7.7011525    
  90200000   292.19724     -8218.8958      1083.0461     -4522.8962     -29.827151    
  90300000   295.56436     -8239.4468      1157.2975     -4439.0856     -18.679734    
  90400000   294.76177     -8192.5526      1127.6637     -4429.0023     -30.518599    
  90500000   300.11535     -8220.2298      1120.5701     -4415.8991      37.261039    
  90600000   302.01393     -8226.6507      1108.2077     -4417.7045     -15.53374     
  90700000   298.9585      -8213.1265      1132.6379     -4407.073      -32.767717    
  90800000   300.41205     -8268.4894      1166.4576     -4415.6181     -27.50704     
  90900000   304.26854     -8260.256       1136.2823     -4403.0736      21.65418     
  91000000   304.3587      -8243.5283      1135.5649     -4386.257      -16.484407    
  91100000   299.9449      -8224.1183      1131.8329     -4410.0491      0.71052631   
  91200000   295.7181      -8216.63        1156.0306     -4416.1609      8.8069751    
  91300000   304.9804      -8231.0092      1126.913      -4376.8302      2.8407147    
  91400000   297.71619     -8232.0113      1165.6219     -4404.0831      27.36718     
  91500000   288.61336     -8214.2583      1172.0301     -4461.3234     -1.5528166    
  91600000   305.12949     -8252.3664      1176.4762     -4347.2911     -28.327345    
  91700000   306.89328     -8229.6377      1141.1802     -4344.0858      28.0012      
  91800000   300.38645     -8235.6622      1128.3351     -4421.1423     -7.5803307    
  91900000   292.30074     -8275.1242      1153.2587     -4507.9866     -41.447687    
  92000000   304.88937     -8270.0983      1152.4485     -4391.1979      14.246145    
  92100000   302.4592      -8245.8         1138.3774     -4402.7023     -41.361088    
  92200000   292.98813     -8225.6286      1161.6031     -4443.9996     -23.542288    
  92300000   298.02486     -8226.7605      1139.8627     -4421.8313      32.507284    
  92400000   296.28278     -8233.7007      1162.9471     -4421.2656      50.494573    
  92500000   298.14037     -8208.9533      1155.8634     -4386.9904     -16.353061    
  92600000   302.04281     -8238.3195      1141.9577     -4395.365      -59.605865    
  92700000   298.5805      -8246.3882      1164.4401     -4411.9129      6.6673269    
  92800000   299.45417     -8237.7415      1118.4563     -4441.4372     -32.664079    
  92900000   300.49108     -8226.1336      1153.8626     -4385.1504      20.682726    
  93000000   299.86807     -8231.9967      1164.6006     -4385.8469     -8.9553012    
  93100000   308.38038     -8226.5642      1152.427      -4316.4672      65.163432    
  93200000   299.61391     -8257.593       1182.9481     -4395.3685     -26.689974    
  93300000   299.92637     -8234.3385      1189.6564     -4362.6114     -29.518422    
  93400000   301.83887     -8259.0609      1168.5552     -4391.3327      2.3718761    
  93500000   305.39932     -8221.2669      1143.5383     -4346.7165      0.27656762   
  93600000   293.83523     -8226.3643      1122.4066     -4476.3567      5.6420286    
  93700000   311.46523     -8263.5024      1154.4354     -4323.811       0.60305334   
  93800000   299.3008      -8250.9268      1126.611      -4447.8393      63.477604    
  93900000   307.26919     -8205.4465      1161.7298     -4295.9834      3.5608512    
  94000000   304.63385     -8224.231       1182.367      -4317.6971     -40.24706     
  94100000   299.01713     -8228.3234      1195.0728     -4359.3108      22.422818    
  94200000   300.34417     -8229.7328      1111.5454     -4432.3807      16.443127    
  94300000   294.19273     -8254.4634      1161.0203     -4462.6452     -18.833026    
  94400000   291.78699     -8259.9751      1175.6504     -4475.0399      7.7599071    
  94500000   303.75527     -8246.7536      1153.184      -4377.2594     -23.042587    
  94600000   296.73783     -8246.9033      1150.9467     -4442.3993      4.7956454    
  94700000   293.73965     -8233.1918      1099.4833     -4506.9622     -7.1977431    
  94800000   298.86057     -8227.6395      1170.8135     -4384.2861     -18.649804    
  94900000   298.45117     -8228.1569      1161.0061     -4398.2721      30.366448    
  95000000   305.20793     -8210.5644      1166.5769     -4314.6869      19.48196     
  95100000   296.02805     -8236.0484      1133.5323     -4455.3059      26.436415    
  95200000   300.65912     -8245.1118      1176.3362     -4380.1524      14.199838    
  95300000   299.44962     -8219.0344      1160.3107     -4380.9164      15.391408    
  95400000   289.56261     -8229.6679      1131.0312     -4509.2433     -23.68863     
  95500000   307.09958     -8232.3418      1133.2417     -4352.8836     -13.442134    
  95600000   303.8812      -8217.5368      1166.975      -4333.1254     -19.173548    
  95700000   301.27935     -8244.1576      1190.8003     -4359.1878     -40.343476    
  95800000   301.37137     -8253.6224      1157.3558     -4401.2742     -18.070363    
  95900000   292.89123     -8217.5175      1108.6867     -4489.6715      56.699243    
  96000000   294.81584     -8257.9802      1142.7518     -4478.8583      24.499946    
  96100000   298.87016     -8235.9449      1108.7435     -4454.5758     -1.7108101    
  96200000   302.92561     -8249.9753      1170.5708     -4370.5134      12.487098    
  96300000   299.0575      -8216.3751      1097.0071     -4445.0672     -7.9521663    
  96400000   302.02478     -8224.4162      1147.4636     -4376.117       28.486573    
  96500000   297.2049      -8237.6879      1120.3738     -4459.58       -20.833557    
  96600000   306.66544     -8206.6347      1163.5559     -4300.7445     -9.9671922    
  96700000   304.06834     -8293.1426      1110.486      -4463.5467      28.062201    
  96800000   301.07292     -8282.0335      1100.1627     -4489.5472      17.784713    
  96900000   306.15631     -8276.3355      1126.7276     -4411.8265     -1.2875912    
  97000000   292.62851     -8220.767       1164.3624     -4439.5946     -13.495287    
  97100000   303.6892      -8223.4899      1163.1422     -4344.6282      0.32078639   
  97200000   295.91492     -8226.2857      1092.8708     -4487.2163     -17.361218    
  97300000   297.95781     -8255.6724      1174.7397     -4416.4658      16.931732    
  97400000   302.26739     -8242.6968      1172.7562     -4366.9355      24.550586    
  97500000   297.13193     -8225.6985      1176.3024     -4392.3145     -40.932239    
  97600000   297.44862     -8237.5119      1175.3898     -4402.2086     -1.6023935    
  97700000   304.23614     -8217.5462      1132.387      -4364.5487      3.0903256    
  97800000   294.70135     -8233.6142      1167.4062     -4430.8617      60.44586     
  97900000   296.16848     -8221.6258      1108.5862     -4464.5736      56.898328    
  98000000   293.84853     -8239.7833      1116.734      -4495.3294     -4.7147077    
  98100000   292.17815     -8219.1972      1095.5995     -4510.8149      20.677625    
  98200000   306.06492     -8247.6115      1127.8765     -4382.7708     -40.289458    
  98300000   300.99847     -8272.4778      1149.9359     -4430.8841     -9.2674221    
  98400000   300.03479     -8250.4494      1153.0042     -4414.405       20.397816    
  98500000   303.56438     -8231.8338      1143.3306     -4373.8999      10.253515    
  98600000   305.3904      -8281.0885      1174.1559     -4376.0002     -20.804482    
  98700000   294.47864     -8293.3027      1142.1417     -4517.8063     -6.2114995    
  98800000   294.4651      -8233.2049      1167.1979     -4432.7734      9.5447555    
  98900000   300.54659     -8268.562       1131.5285     -4449.4167      7.4752459    
  99000000   303.0097      -8258.7723      1095.1502     -4453.979       7.2064239    
  99100000   294.19662     -8295.0298      1191.6288     -4472.5683      12.689178    
  99200000   306.08571     -8256.1962      1157.1988     -4361.8473      2.7712063    
  99300000   301.01246     -8273.3171      1076.6015     -4504.9327     -1.3230403    
  99400000   306.67965     -8298.298       1171.9431     -4383.8936      10.462806    
  99500000   299.6614      -8267.2032      1135.0171     -4452.4849      10.420239    
  99600000   299.85462     -8239.5969      1129.1428     -4429.0251     -11.791056    
  99700000   300.65984     -8269.2517      1137.2871     -4443.335      -4.7838872    
  99800000   300.77631     -8236.651       1148.3586     -4398.6212     -6.0560822    
  99900000   298.22771     -8254.8052      1166.7936     -4421.1311      13.310005    
 100000000   306.25133     -8305.7713      1119.4345     -4447.7057      39.344365    
 100010000   294.17947     -8241.8634      1152.4084     -4458.7756      7.5379444    
Loop time of 140177 on 18 procs for 100000000 steps with 3001 atoms

Performance: 1849.096 ns/day, 0.013 hours/ns, 713.386 timesteps/s
99.6% CPU use with 18 MPI tasks x 1 OpenMP threads

MPI task timing breakdown:
Section |  min time  |  avg time  |  max time  |%varavg| %total
---------------------------------------------------------------
Pair    | 705.26     | 10768      | 49999      |13924.7 |  7.68
Bond    | 412.79     | 1089.3     | 3258       |2576.1 |  0.78
Neigh   | 57129      | 57321      | 57667      |  86.8 | 40.89
Comm    | 25264      | 68677      | 80057      |6135.5 | 48.99
Output  | 11.875     | 11.93      | 11.963     |   0.7 |  0.01
Modify  | 475.47     | 1166.8     | 3467.1     |2596.7 |  0.83
Other   |            | 1142       |            |       |  0.81

Nlocal:        166.722 ave         569 max          47 min
Histogram: 8 0 8 0 0 0 0 0 0 2
Nghost:        4961.11 ave        5662 max        3627 min
Histogram: 2 0 0 0 3 5 0 0 0 8
Neighs:           3841 ave       18129 max         146 min
Histogram: 8 3 5 0 0 0 0 0 0 2
FullNghs:      7618.89 ave       35348 max         469 min
Histogram: 8 1 7 0 0 0 0 0 0 2

Total # of neighbors = 137140
Ave neighs/atom = 45.698101
Ave special neighs/atom = 3.5988004
Neighbor list builds = 10000000
Dangerous builds = 10000000
Total wall time: 38:56:21
