LAMMPS (23 Jun 2022)
OMP_NUM_THREADS environment is not set. Defaulting to 1 thread. (src/src/comm.cpp:98)
  using 1 OpenMP thread(s) per MPI task

variable 		movie equal 25000
variable		output equal 5000
variable		solvent equal 0.2  #0.2 is a good solvent, 0.5 is a bad solvent, 1.0 is no solvent/vacuum
variable		np_rad equal 25.0  #NP radius in Angstrom (= 0.1 nm)
variable		coor_del equal 3.0  # in order for a ligand to be considered to be bound, it must be within this radius of the edge of the NP VDW
variable 		s2_cutoff equal 35
variable 		E_bind equal 10.0  #ligand-NP binding energy in kcal/mol
variable		Lbox equal 150.0   #edge length of cubic simulation box
variable 		Nlig equal 600	   #number of ligands
variable		seed equal 314159
variable		trajsteps equal 25000000	 #number of timesteps (length of simulation)
restart			2500000 save

units 			real
atom_style		molecular

region 			box block 0 ${Lbox} 0 ${Lbox} 0 ${Lbox} units box
region 			box block 0 150 0 ${Lbox} 0 ${Lbox} units box
region 			box block 0 150 0 150 0 ${Lbox} units box
region 			box block 0 150 0 150 0 150 units box
create_box		4 box bond/types 2 angle/types 1 extra/bond/per/atom 2 extra/angle/per/atom 1 extra/special/per/atom 3
Created orthogonal box = (0 0 0) to (150 150 150)
  4 by 4 by 4 MPI processor grid

molecule		lig ligand.mol
Read molecule template lig:
  1 molecules
  0 fragments
  5 atoms with max type 2
  4 bonds with max type 1
  3 angles with max type 1
  0 dihedrals with max type 0
  0 impropers with max type 0
#molecule		hex hexane.mol

mass            1 60 #C1, MARTINI bead representing a 4-carbon segment of an alkyl chain
mass            2 60 #N6d, MARTINI bead representing a NH2 amino group + a 2-carbon segment of an alkyl chain
mass            3 43 #SC2, MARTINI bead representing a 3-carbon segment of an alkyl chain. NOT USED IN THIS SIMULATION!
mass            4 500 #a spherical nanoparticle. the mass is not realistic.

# put NP in center
create_atoms	4 single $(v_Lbox/2) $(v_Lbox/2) $(v_Lbox/2) units box
create_atoms	4 single 75 $(v_Lbox/2) $(v_Lbox/2) units box
create_atoms	4 single 75 75 $(v_Lbox/2) units box
create_atoms	4 single 75 75 75 units box
Created 1 atoms
  using box units in orthogonal box = (0 0 0) to (150 150 150)
  create_atoms CPU = 0.000 seconds

# define region as everything outside a spherical center in sim. box. ASSUME SIM. BOX IS IMPLIED? doc seems to...
region			box_with_hole sphere $(v_Lbox/2) $(v_Lbox/2) $(v_Lbox/2) $(v_np_rad+5.0) side out units box
region			box_with_hole sphere 75 $(v_Lbox/2) $(v_Lbox/2) $(v_np_rad+5.0) side out units box
region			box_with_hole sphere 75 75 $(v_Lbox/2) $(v_np_rad+5.0) side out units box
region			box_with_hole sphere 75 75 75 $(v_np_rad+5.0) side out units box
region			box_with_hole sphere 75 75 75 30 side out units box

create_atoms	0 random ${Nlig} ${seed} box_with_hole mol lig 12345
create_atoms	0 random 600 ${seed} box_with_hole mol lig 12345
create_atoms	0 random 600 314159 box_with_hole mol lig 12345
Created 3000 atoms
  using lattice units in orthogonal box = (0 0 0) to (150 150 150)
  create_atoms CPU = 0.003 seconds

pair_style		lj/expand 12.0
pair_modify		shift yes

#pair_coeff		1 1 energy sigma delta cut

#ligand-ligand interactions
pair_coeff		1 1 $(v_solvent*0.810) 4.7 0 12
pair_coeff		1 1 0.16200000000000003286 4.7 0 12
pair_coeff		2 2 $(v_solvent*0.841) 4.7 0 12
pair_coeff		2 2 0.16820000000000001616 4.7 0 12
pair_coeff		1 2 $(v_solvent*0.667) 4.7 0 12
pair_coeff		1 2 0.13340000000000001856 4.7 0 12

#solvent-ligand interactions, NOT USED IN THIS SIMULATION
pair_coeff		3 3 0.562 4.1 0 12
pair_coeff		1 3 0.755 4.3 0 12
pair_coeff		2 3 0.554 4.3 0 12

#interactions involving the NP
pair_coeff  	1 4 0.100 4.0 $(v_np_rad-2.5) 12
pair_coeff  	1 4 0.100 4.0 22.5 12
pair_coeff  	3 4 0.100 4.0 $(v_np_rad-2.5) 12
pair_coeff  	3 4 0.100 4.0 22.5 12
pair_coeff		4 4 0.100 4.0 $(2*v_np_rad-4.0) 12
pair_coeff		4 4 0.100 4.0 46 12
pair_coeff   	2 4 ${E_bind} 4.0 $(v_np_rad-2.5) 12 #this interaction controls the binding strength of ligands to the NP core
pair_coeff   	2 4 10 4.0 $(v_np_rad-2.5) 12 
pair_coeff   	2 4 10 4.0 22.5 12 

bond_style  	harmonic
bond_coeff  	1 4.54 4.7 	#C1-C1
bond_coeff		2 5.98 4.05 #SC2-SC2, hexane

angle_style		cosine/squared
angle_coeff		1 4.1826 180

special_bonds 	lj 0 1 1
Finding 1-2 1-3 1-4 neighbors ...
  special bond factors lj:    0        1        1       
  special bond factors coul:  0        0        0       
     2 = max # of 1-2 neighbors
     2 = max # of 1-3 neighbors
     2 = max # of 1-4 neighbors
     7 = max # of special neighbors
  special bonds CPU = 0.001 seconds

group			ligands type 1 2
3000 atoms in group ligands


#EQULILIBRATION: getting rid of overlaps between particles using fix nve/limit ***************

fix 			1 ligands nve/limit 0.1
fix 			2 ligands langevin 300 300 1000 12345 #langevin thermostat

timestep		30

thermo 			${output}
thermo 			5000

dump      		1 all custom 5000 pos.lammpstrj type x y z
dump_modify		1 sort id

run				10000
Generated 0 of 6 mixed pair_coeff terms from geometric mixing rule
Neighbor list info ...
  update every 1 steps, delay 10 steps, check yes
  max neighbors/atom: 2000, page size: 100000
  master list distance cutoff = 60
  ghost atom cutoff = 60
  binsize = 30, bins = 5 5 5
  1 neighbor lists, perpetual/occasional/extra = 1 0 0
  (1) pair lj/expand, perpetual
      attributes: half, newton on
      pair build: half/bin/newton
      stencil: half/bin/3d
      bin: standard
Per MPI rank memory allocation (min/avg/max) = 8.076 | 8.105 | 8.367 Mbytes
   Step          Temp          E_pair         E_mol          TotEng         Press     
         0   0              9.8623636e+13  4.0068356e-25  9.8623636e+13  8.0147754e+12
      5000   141.41516     -628.16022      652.1235       1288.5585      7.2769135    
     10000   141.12102     -726.66368      632.53707      1167.8382     -1.1213595    
Loop time of 4.02057 on 64 procs for 10000 steps with 3001 atoms

Performance: 6446.843 ns/day, 0.004 hours/ns, 2487.208 timesteps/s
99.6% CPU use with 64 MPI tasks x 1 OpenMP threads

MPI task timing breakdown:
Section |  min time  |  avg time  |  max time  |%varavg| %total
---------------------------------------------------------------
Pair    | 0.018527   | 0.050847   | 0.11204    |   9.9 |  1.26
Bond    | 0.010889   | 0.021047   | 0.037331   |   3.9 |  0.52
Neigh   | 0.59049    | 0.59603    | 0.60368    |   0.4 | 14.82
Comm    | 3.1705     | 3.2641     | 3.3172     |   1.9 | 81.18
Output  | 0.0012573  | 0.0012767  | 0.0012944  |   0.0 |  0.03
Modify  | 0.021731   | 0.040175   | 0.068229   |   5.2 |  1.00
Other   |            | 0.04713    |            |       |  1.17

Nlocal:        46.8906 ave          84 max          12 min
Histogram: 1 3 8 11 13 11 8 2 5 2
Nghost:        3424.94 ave        3510 max        3341 min
Histogram: 2 4 8 8 9 16 4 7 3 3
Neighs:        314.078 ave         696 max          50 min
Histogram: 3 12 11 8 10 6 5 3 2 4

Total # of neighbors = 20101
Ave neighs/atom = 6.6981006
Ave special neighs/atom = 3.5988004
Neighbor list builds = 909
Dangerous builds = 0

#PRODUCTION RUN ******************************************************************************

unfix 			1
fix 			1 ligands nve
undump			1
# define spherical region in center of sim. box
# region			center sphere $(v_Lbox/2) $(v_Lbox/2) $(v_Lbox/2) $(v_np_rad+5.0) units box
# delete atoms in the region
# delete_atoms	region center mol yes
# put NP in the hole
# create_atoms	4 single $(v_Lbox/2) $(v_Lbox/2) $(v_Lbox/2) units box

dump      		2 all custom ${movie} pos2.lammpstrj type x y z
dump      		2 all custom 25000 pos2.lammpstrj type x y z
dump_modify		2 sort id
dump 			2. all custom ${output} pos2_long.lammpstrj type x y z
dump 			2. all custom 5000 pos2_long.lammpstrj type x y z
dump_modify 	2. sort id

group           nps     type 4
1 atoms in group nps
group           amines  type 2
600 atoms in group amines

# count coordination number of NP
compute coords nps coord/atom cutoff $(v_np_rad + v_coor_del) 2
compute coords nps coord/atom cutoff 28 2
dump 3 nps custom ${output} coords.dmp c_coords
dump 3 nps custom 5000 coords.dmp c_coords
# equivalent calculation below
# compute coords nps coord/atom cutoff 28 group amines
# dump 4 nps custom ${output} coords2.dmp type c_coords2

# seond shell
compute coords2 nps coord/atom cutoff ${s2_cutoff} 2
compute coords2 nps coord/atom cutoff 35 2
dump 4 nps custom ${output} coords2.dmp c_coords2
dump 4 nps custom 5000 coords2.dmp c_coords2



run				${trajsteps}
run				25000000
Generated 0 of 6 mixed pair_coeff terms from geometric mixing rule
Neighbor list info ...
  update every 1 steps, delay 10 steps, check yes
  max neighbors/atom: 2000, page size: 100000
  master list distance cutoff = 60
  ghost atom cutoff = 60
  binsize = 30, bins = 5 5 5
  3 neighbor lists, perpetual/occasional/extra = 1 2 0
  (1) pair lj/expand, perpetual
      attributes: half, newton on
      pair build: half/bin/newton
      stencil: half/bin/3d
      bin: standard
  (2) compute coord/atom, occasional
      attributes: full, newton on
      pair build: full/bin
      stencil: full/bin/3d
      bin: standard
  (3) compute coord/atom, occasional
      attributes: full, newton on
      pair build: full/bin
      stencil: full/bin/3d
      bin: standard
Per MPI rank memory allocation (min/avg/max) = 10.11 | 10.23 | 12.12 Mbytes
   Step          Temp          E_pair         E_mol          TotEng         Press     
     10000   141.12102     -726.66368      632.53707      1167.8382     -1.1213595    
     15000   297.82475     -805.00034      1276.9208      3135.1975      8.7555864    
     20000   299.35177     -942.46327      1298.198       3032.667       9.4215503    
     25000   304.8233      -1106.2722      1283.7076      2903.2964      2.4766079    
     30000   295.36786     -1240.9341      1277.688       2678.0603      11.931167    
     35000   308.02543     -1408.9164      1234.0078      2579.5873     -4.1196689    
     40000   303.37616     -1487.1492      1227.8973      2453.6681     -11.32525     
     45000   301.44033     -1632.8021      1304.1971      2367.0041      15.17848     
     50000   303.32339     -1757.944       1287.4034      2241.9076      1.2630998    
     55000   296.33581     -1867.0383      1297.5877      2080.5118     -2.1511019    
     60000   300.58905     -1979.3077      1240.7754      1949.4643      20.203973    
     65000   296.2607      -2007.2911      1340.1249      1982.1244      5.7737193    
     70000   304.66127     -2059.3094      1231.4098      1896.5126     -3.6952427    
     75000   293.56442     -2146.0059      1293.2         1772.3734      4.1839678    
     80000   303.99003     -2249.4513      1264.0231      1732.9815      8.330939     
     85000   303.86664     -2263.9448      1253.0776      1706.439       7.6286062    
     90000   300.31487     -2290.1765      1278.2334      1673.6016     -5.1034155    
     95000   305.10959     -2301.8449      1235.1329      1661.7091      9.6809652    
    100000   303.98978     -2344.6941      1257.0402      1630.7535     -20.682325    
    105000   307.59802     -2394.7804      1260.6362      1616.5297      15.500297    
    110000   295.79443     -2433.2039      1258.8069      1470.724       17.196782    
    115000   297.44253     -2471.8583      1223.1713      1411.172       11.575855    
    120000   295.99627     -2475.3873      1290.284       1461.8226      15.851734    
    125000   306.60706     -2520.345       1219.0489      1440.5161      10.591032    
    130000   301.09266     -2532.9085      1248.3464      1407.9379      13.580395    
    135000   296.98478     -2611.7115      1323.3244      1367.3785      18.790051    
    140000   305.02962     -2622.2492      1268.8037      1374.2606      12.975285    
    145000   299.04942     -2684.0108      1266.0235      1256.2413      5.268922     
    150000   297.50487     -2774.0133      1215.5796      1101.9828      14.857409    
    155000   302.98405     -2823.5183      1231.6735      1117.569      -12.123514    
    160000   304.48697     -2837.5662      1258.5722      1143.8595     -6.5313285    
    165000   303.32307     -2861.3804      1287.932       1138.9969      4.6654629    
    170000   304.57661     -2884.4805      1236.3695      1075.544       16.799679    
    175000   302.88812     -2906.8924      1254.2037      1055.8672      1.4728436    
    180000   305.88492     -2914.2123      1237.2103      1058.3526      12.511588    
    185000   296.94733     -2966.1586      1286.26        975.53218      12.089062    
    190000   304.97961     -2975.146       1213.2311      965.34402      11.794273    
    195000   305.95528     -3033.8922      1258.1135      960.205        20.398727    
    200000   295.10403     -3085.0724      1248.5038      802.37857      29.281483    
    205000   295.59112     -3090.7626      1272.1854      824.72574      3.9385989    
    210000   293.8414      -3077.8685      1245.6967      795.48441     -19.003423    
    215000   299.84569     -3108.3367      1273.1074      846.11972      27.663555    
    220000   298.52772     -3114.9339      1239.8827      794.51199     -7.5732098    
    225000   304.60414     -3142.893       1294.1996      875.20779      3.2546378    
    230000   307.02204     -3140.5849      1260.9374      865.87571      13.658298    
    235000   306.86868     -3112.6423      1261.6209      893.13037     -0.10305479   
    240000   308.11325     -3155.2004      1231.7994      831.88026     -6.7404714    
    245000   297.94439     -3171.3667      1182.2838      675.264        1.5273876    
    250000   302.90619     -3169.0776      1256.6846      796.32451      31.355361    
    255000   300.24143     -3164.6693      1171.895       692.11376      2.9975853    
    260000   299.41958     -3178.5213      1254.6713      753.68871     -1.563217     
    265000   300.0269      -3184.5114      1294.9599      793.41819      16.614643    
    270000   298.62925     -3207.7859      1249.2829      711.96825      0.94939282   
    275000   299.84728     -3218.4693      1245.1856      708.0797       6.0286286    
    280000   303.00951     -3206.2282      1277.417       780.83017     -9.031914     
    285000   297.6283      -3232.1859      1221.257       650.59139      35.318902    
    290000   300.13618     -3213.3217      1224.1551      694.78027     -1.4244667    
    295000   294.1444      -3217.4583      1252.5747      665.48218     -3.8436608    
    300000   301.04445     -3230.6832      1230.7894      692.17512     -12.668353    
    305000   302.0596      -3219.0476      1264.4434      746.54272      25.992914    
    310000   302.33135     -3221.511       1234.1998      716.2658      -8.0628194    
    315000   297.53446     -3265.565       1252.6639      647.78004      7.0870198    
    320000   303.43536     -3262.2898      1260.593       711.75267      14.95398     
    325000   299.64447     -3279.2883      1167.2639      567.52533     -26.040322    
    330000   303.99589     -3293.0458      1227.0891      652.50536     -10.852284    
    335000   300.24663     -3296.9261      1252.2764      640.28485     -20.384603    
    340000   299.62718     -3293.1617      1227.7321      613.96546      9.0391356    
    345000   305.49589     -3283.9826      1273.0938      720.98693      6.3111649    
    350000   297.32831     -3291.6084      1236.6428      603.87206     -20.36119     
    355000   295.34894     -3298.2844      1195.0789      537.93174      8.6965526    
    360000   308.5669      -3311.1775      1241.7646      689.925       -19.385133    
    365000   293.61367     -3294.3009      1265.5492      596.86799      12.375722    
    370000   293.39105     -3316.499       1226.1353      533.26524      19.707238    
    375000   295.70138     -3307.0449      1237.4708      574.71484     -36.705104    
    380000   294.20867     -3295.4437      1214.3529      549.84972      2.186753     
    385000   296.60154     -3314.7266      1198.6222      536.23406     -1.8905992    
    390000   296.03482     -3331.8372      1220.11        535.54349      6.5803539    
    395000   296.99632     -3335.1461      1217.2334      537.95617     -6.9389015    
    400000   304.70814     -3347.0786      1249.922       627.67459      37.964593    
    405000   295.83437     -3330.4891      1253.2074      568.1965       5.1594401    
    410000   308.94727     -3349.9874      1198.2148      610.9668      -26.068702    
    415000   303.93574     -3356.5355      1267.5283      628.91697      6.0253296    
    420000   305.3274      -3347.9561      1203.4082      585.82102     -2.9728537    
    425000   303.47269     -3353.7731      1269.9688      629.97911      9.7827543    
    430000   305.11606     -3390.6167      1190.2119      528.07425      10.664108    
    435000   300.70501     -3398.6853      1200.2743      490.62255      35.723294    
    440000   288.89377     -3389.763       1213.1692      406.81852      12.164541    
    445000   300.95289     -3401.3541      1222.8008      512.69696      15.559728    
    450000   304.38027     -3443.1923      1211.1727      489.8797       16.200492    
    455000   297.25762     -3389.6814      1209.799       478.32304     -13.085004    
    460000   304.97407     -3410.3377      1231.6214      548.49309      37.40908     
    465000   299.01313     -3431.2906      1252.6387      495.25208      36.29953     
    470000   297.43861     -3421.695       1244.2798      482.40883     -3.2966405    
    475000   304.26037     -3426.3323      1218.1225      512.61729      3.2671141    
    480000   298.80732     -3429.1526      1209.5026      452.4136      -15.152321    
    485000   303.31483     -3452.097       1234.6284      494.90304      12.703078    
    490000   301.73236     -3430.1264      1232.6972      500.7914      -1.1189913    
    495000   301.58709     -3430.6821      1244.9448      511.18415      5.8996003    
    500000   293.09191     -3447.4869      1188.6838      362.15087      14.184388    
    505000   300.68021     -3490.26        1220.3702      418.92201     -13.04354     
    510000   298.86996     -3465.374       1224.5415      431.79124     -1.5695511    
    515000   296.67345     -3503.0437      1236.1637      386.10154     -7.801667     
    520000   304.64489     -3492.0451      1218.8637      451.08424      30.690336    
    525000   302.25953     -3489.9084      1215.8766      428.903        11.617065    
    530000   302.46434     -3546.2989      1195.7037      354.17095      19.197572    
    535000   309.60043     -3510.7713      1201.6219      459.43088      0.82601394   
    540000   302.03629     -3529.1254      1230.7245      402.53751     -26.856154    
    545000   298.09084     -3484.1495      1274.168       455.67509     -0.93538941   
    550000   302.72614     -3501.327       1235.9698      441.75011      9.3868566    
    555000   296.57478     -3490.2951      1187.0299      348.83408      11.3503      
    560000   302.29089     -3488.0207      1246.9469      462.1414      -23.708047    
    565000   294.20767     -3532.9535      1235.5443      333.52238     -11.51448     
    570000   301.41073     -3550.5282      1239.5711      384.38735      8.5605667    
    575000   294.17156     -3516.3283      1242.6382      356.91856     -10.692843    
    580000   299.98592     -3553.8732      1235.4268      364.15675      8.689318     
    585000   295.14113     -3567.5934      1237.4811      309.1666       10.888411    
    590000   297.12694     -3542.7038      1262.4899      376.823        33.537632    
    595000   307.23213     -3549.1024      1231.784       430.0835      -1.1215078    
    600000   304.02974     -3569.4186      1220.1364      369.48257      5.2776268    
    605000   299.07492     -3559.8063      1260.124       374.77428     -11.397626    
    610000   296.44397     -3554.7767      1220.1039      316.25676     -21.344173    
    615000   304.52438     -3553.5148      1201.5588      371.232        19.616739    
    620000   302.79072     -3557.2881      1179.6974      330.09423      27.361409    
    625000   299.85291     -3535.899       1235.1419      380.65653     -16.631006    
    630000   300.14399     -3555.7644      1189.2985      317.55076      13.040976    
    635000   296.6697      -3539.7066      1222.1811      335.4225       36.09664     
    640000   304.88449     -3559.5173      1233.8333      400.72434      22.175025    
    645000   308.63042     -3553.7372      1210.7978      416.96654     -1.8379796    
    650000   297.81473     -3546.1583      1232.5113      349.54037      4.0380341    
    655000   305.24345     -3582.4757      1206.3943      353.53686     -5.5518933    
    660000   302.6994      -3579.9896      1202.7886      329.66718     -0.33548186   
    665000   301.5362      -3547.7431      1210.5845      359.30786     -4.949388     
    670000   299.97049     -3568.3723      1260.0478      374.14063      15.322161    
    675000   306.98234     -3558.0865      1191.0733      378.155        31.823717    
    680000   304.28176     -3583.2933      1217.4153      355.14041     -2.1976898    
    685000   304.55967     -3590.0657      1221.0024      354.44029     -10.995704    
    690000   303.87983     -3556.9262      1203.854       364.35185      17.521287    
    695000   297.87471     -3533.5695      1207.1687      337.32302     -36.712076    
    700000   299.51594     -3558.8033      1195.4407      315.03783     -5.5985312    
    705000   302.79485     -3514.7757      1196.0564      389.00248     -17.310562    
    710000   297.39743     -3554.8812      1261.6551      366.22958      9.0779848    
    715000   301.88015     -3575.4463      1221.9346      346.03042     -18.618504    
    720000   301.6894      -3607.451       1249.4027      339.78813      8.2610376    
    725000   298.04439     -3578.2955      1243.4766      330.42225      20.651118    
    730000   308.10734     -3548.7366      1245.5392      452.03101      4.539415     
    735000   298.04795     -3586.3306      1225.7234      304.66584      18.341024    
    740000   303.5282      -3570.7557      1258.4385      401.96251      11.749148    
    745000   303.78877     -3568.8804      1221.8369      369.56646      12.232126    
    750000   299.22185     -3576.2303      1232.7842      332.3244       7.71676      
    755000   294.04774     -3561.4149      1220.8652      288.95169      12.249478    
    760000   305.69944     -3580.1986      1202.1666      355.66387      19.492098    
    765000   301.17157     -3561.3759      1229.074       360.90383     -7.2755334    
    770000   293.05341     -3617.5643      1214.7834      217.8287       15.837743    
    775000   291.34291     -3584.6598      1229.3731      250.02687      26.662834    
    780000   296.40316     -3613.6589      1237.8855      274.79109      30.252074    
    785000   308.21419     -3580.7522      1228.8213      404.25301     -4.3772001    
    790000   301.22472     -3588.9043      1183.7936      288.57031      7.090511     
    795000   295.8615      -3603.7309      1218.7129      260.70281      14.318626    
    800000   297.28245     -3614.0798      1211.6891      256.03683     -19.208797    
    805000   306.18446     -3596.7399      1216.1258      357.419        4.2921078    
    810000   297.42829     -3593.7948      1226.1199      292.0567      -0.55352718   
    815000   298.48087     -3610.484       1224.6934      283.35374      15.510685    
    820000   299.06586     -3620.5897      1181.1274      234.91324      21.853823    
    825000   302.79884     -3602.9494      1221.7822      326.59025      0.62249114   
    830000   297.97787     -3608.0009      1253.5793      310.22471      1.9593107    
    835000   306.01758     -3588.1552      1203.4364      351.82205     -3.7828709    
    840000   291.33176     -3606.2146      1216.494       215.49332     -4.0885787    
    845000   294.312       -3621.6849      1187.6906      197.87022      3.4162092    
    850000   294.67401     -3612.3656      1222.4088      245.14486     -9.0014226    
    855000   291.16184     -3590.5058      1241.1022      254.29087     -4.6058641    
    860000   297.55736     -3606.7438      1211.1815      265.32369      8.7689038    
    865000   302.14382     -3606.3307      1230.8359      326.40521      0.1082733    
    870000   301.14971     -3607.3297      1208.1628      293.8434      -10.399597    
    875000   300.80387     -3596.6813      1188.3063      281.54264     -7.5808256    
    880000   303.26533     -3631.5417      1192.8582      273.24551      12.722273    
    885000   306.10015     -3629.9437      1221.3161      328.65163     -17.655729    
    890000   299.2752      -3674.031       1181.3592      183.57577      22.489032    
    895000   298.18455     -3665.8291      1226.943       227.60831      37.592892    
    900000   304.12939     -3643.2877      1259.0293      335.39742     -13.212677    
    905000   297.61099     -3649.9909      1204.936       216.31058      9.1786288    
    910000   298.48687     -3653.7981      1253.4026      268.8025       9.3282867    
    915000   304.22476     -3652.0153      1226.6386      295.13193     -14.021811    
    920000   296.97135     -3656.9787      1191.6871      190.35396      20.211884    
    925000   302.38288     -3645.8489      1229.6593      287.84825     -0.88386169   
    930000   302.14957     -3664.7145      1279.9606      317.19745      8.2960034    
    935000   299.22659     -3667.041       1205.8039      214.57579     -17.176139    
    940000   300.95659     -3694.4412      1247.4768      244.31884     -1.2306564    
    945000   301.39374     -3674.8383      1226.1808      246.53491      16.532401    
    950000   302.12562     -3688.604       1204.7585      217.89175      7.6868817    
    955000   303.48609     -3671.0897      1206.0473      248.86081      17.029934    
    960000   299.47642     -3682.7484      1192.0962      187.39469      2.2271556    
    965000   300.64815     -3702.2425      1232.521       218.80366     -10.133677    
    970000   303.66315     -3678.8868      1197.4918      234.09153     -2.2831423    
    975000   301.17477     -3698.3463      1196.7867      191.67475      7.0519175    
    980000   298.30139     -3670.2806      1172.3667      169.62543      3.18322      
    985000   295.40142     -3653.6315      1163.5347      151.50977     -6.5970087    
    990000   298.79808     -3671.3199      1167.1883      167.8493       5.7036904    
    995000   299.82371     -3668.4941      1204.5692      217.22774     -11.102393    
   1000000   296.24126     -3675.2027      1243.144       217.05811      10.979935    
   1005000   301.48423     -3671.7193      1194.0115      218.2939      -29.130872    
   1010000   296.60657     -3673.0847      1216.5893      195.88811     -23.668342    
   1015000   303.62984     -3657.7549      1230.9517      288.38531      10.410989    
   1020000   293.30055     -3665.09        1187.2756      145.00525      9.1637221    
   1025000   302.71782     -3649.0071      1220.8492      278.87515     -7.2597472    
   1030000   303.45853     -3660.0462      1176.4521      230.06262      19.152748    
   1035000   296.46746     -3657.0574      1179.7245      173.8066      -10.097041    
   1040000   295.54745     -3653.982       1177.0823      166.01271      20.443331    
   1045000   303.82139     -3647.3542      1243.0442      312.59159     -0.17600816   
   1050000   290.70027     -3679.7466      1200.9029      120.72307     -3.5500406    
   1055000   296.6981      -3680.6128      1181.7419      154.33117     -21.799541    
   1060000   301.33932     -3636.6941      1220.786       278.79773     -12.967877    
   1065000   294.98691     -3657.5941      1208.7385      189.04431     -10.723946    
   1070000   304.42544     -3668.0766      1187.8737      242.10032      13.12503     
   1075000   298.37479     -3659.4561      1201.1995      209.93914     -16.95009     
   1080000   305.82733     -3649.9425      1201.6731      286.57017      36.086718    
   1085000   299.88003     -3667.4209      1196.3429      210.57822      9.5131417    
   1090000   302.40415     -3653.6903      1251.0178      301.55555     -16.838088    
   1095000   302.86467     -3645.9717      1208.7492      271.12366      3.5195676    
   1100000   298.05783     -3657.1176      1231.4189      239.66258     -5.3613991    
   1105000   302.59876     -3678.9275      1264.6352      291.67599      26.429756    
   1110000   295.91746     -3670.7251      1243.0806      218.57668     -24.779792    
   1115000   296.79776     -3714.2001      1202.7936      142.68683      17.845173    
   1120000   301.67406     -3679.3828      1189.5846      207.90105      11.217865    
   1125000   303.19284     -3694.7158      1204.5719      221.13688      0.28426161   
   1130000   308.59826     -3676.1427      1242.4007      325.87638      13.226373    
   1135000   302.05716     -3692.6334      1216.746       225.2377       8.4209614    
   1140000   296.9529      -3693.8258      1217.3711      179.02589     -1.4510562    
   1145000   306.31894     -3691.5146      1201.6327      249.35383      7.0867861    
   1150000   300.3382      -3678.9632      1202.1691      208.95932      19.480356    
   1155000   294.18762     -3698.5703      1202.9637      135.14555      7.9217166    
   1160000   303.84274     -3672.5866      1288.2679      332.7737      -18.133674    
   1165000   305.33153     -3663.0484      1217.7428      285.10023     -19.868422    
   1170000   297.49302     -3659.0379      1252.2816      253.55433      21.820895    
   1175000   290.91702     -3677.5186      1254.8951      178.88167     -8.7859682    
   1180000   297.91737     -3689.3974      1254.5936      229.30147      23.662351    
   1185000   301.2725      -3639.9644      1171.3723      225.51618      35.943771    
   1190000   291.94775     -3676.4008      1188.8449      123.16645      21.540979    
   1195000   297.16013     -3653.8969      1217.9885      221.42528      14.87969     
   1200000   295.92159     -3684.964       1248.7719      210.06601      10.459212    
   1205000   293.72834     -3662.2162      1244.2172      208.64619     -17.052041    
   1210000   298.60335     -3708.2367      1189.9577      151.96063      7.4290773    
   1215000   297.4747      -3651.8242      1205.4535      213.77604      12.653743    
   1220000   305.16779     -3653.5306      1251.803       327.21405      0.75020736   
   1225000   300.551       -3679.2968      1217.2143      225.57378      28.160517    
   1230000   290.53737     -3642.4985      1203.2889      158.90055      15.434044    
   1235000   298.50234     -3691.9473      1188.7526      166.14153      0.071598871  
   1240000   294.95205     -3671.9034      1226.9724      192.65715      3.0728174    
   1245000   301.80687     -3717.0355      1190.1616      172.0129       3.8829372    
   1250000   301.61731     -3677.5841      1207.8983      227.5059       4.7701334    
   1255000   299.66756     -3689.7453      1219.5538      209.56483      3.6652431    
   1260000   302.25424     -3715.0668      1236.5186      224.33916      5.7965116    
   1265000   306.05216     -3729.2471      1229.2193      236.82223      13.839069    
   1270000   300.39745     -3688.5101      1231.956       229.72913     -12.066401    
   1275000   302.30023     -3710.216       1198.5776      191.66023      4.5956048    
   1280000   298.58598     -3666.9012      1201.1337      204.31672      2.6568173    
   1285000   305.75209     -3704.4177      1232.6072      262.35614     -9.8685914    
   1290000   301.68871     -3655.2293      1274.3325      316.93338      15.931451    
   1295000   295.25573     -3707.1528      1195.5215      128.67237     -12.48175     
   1300000   303.64545     -3687.5757      1182.2378      209.99036      13.152097    
   1305000   301.5558      -3660.9567      1190.0147      225.69965     -1.615398     
   1310000   304.38438     -3674.7832      1217.4848      264.63773      7.7454168    
   1315000   299.30599     -3718.3167      1209.3633      167.56951     -12.240286    
   1320000   298.29062     -3708.5092      1234.9379      193.87169     -9.6010616    
   1325000   297.76869     -3689.2559      1219.5346      193.05433      17.164642    
   1330000   298.11269     -3718.4143      1197.0958      144.53343     -1.2829128    
   1335000   312.72617     -3738.8502      1183.5206      241.20239      14.250569    
   1340000   303.89304     -3707.6012      1254.5085      264.44953      34.234151    
   1345000   301.05947     -3706.2908      1237.6073      223.51972      22.107366    
   1350000   305.31948     -3697.9181      1235.7113      268.09124      29.117966    
   1355000   295.72753     -3726.5023      1215.5677      133.58819      0.33921483   
   1360000   301.47216     -3704.3311      1238.5091      230.07171     -1.3131109    
   1365000   298.57468     -3725.4076      1210.2299      154.80559      12.192971    
   1370000   304.21023     -3677.8336      1234.7297      277.27487     -2.2753036    
   1375000   297.05692     -3706.1923      1243.5085      193.72696     -18.570935    
   1380000   301.34931     -3732.2999      1220.625       183.12026      0.87054164   
   1385000   304.15253     -3742.9216      1262.5481      239.48925      10.802491    
   1390000   303.62419     -3733.6786      1215.6376      197.09716      3.085055     
   1395000   295.10674     -3714.8685      1198.3891      122.49198      6.5291352    
   1400000   299.05195     -3732.7722      1235.9358      177.41476      20.117605    
   1405000   293.96576     -3722.3381      1214.3427      120.7729      -12.188125    
   1410000   292.24251     -3704.2163      1220.081       129.22295      15.620299    
   1415000   294.56336     -3711.82        1228.459       150.75131     -7.2894419    
   1420000   299.91835     -3693.7553      1233.4256      221.66913     -5.2121541    
   1425000   304.20856     -3710.6106      1177.9681      187.72131     -5.7242655    
   1430000   296.8467      -3735.0466      1201.2024      120.6867       14.877157    
   1435000   303.37327     -3727.3746      1229.8287      215.34833     -14.896074    
   1440000   306.33424     -3741.9195      1213.2103      210.66339      34.102596    
   1445000   301.79778     -3734.1628      1190.8942      155.53695     -2.1326584    
   1450000   300.84592     -3780.9078      1219.7139      129.09962     -28.266158    
   1455000   294.48265     -3767.3096      1226.0737      92.154664     -18.749219    
   1460000   297.23192     -3744.6466      1236.7127      150.04177      7.8563492    
   1465000   305.65003     -3728.7733      1186.7096      191.19035     -9.562013     
   1470000   300.01757     -3761.9046      1272.1497      193.13121     -17.480379    
   1475000   299.14736     -3751.2361      1220.6507      144.51888      17.609631    
   1480000   301.42556     -3742.2894      1203.3131      156.50063      6.7034925    
   1485000   306.71924     -3767.2776      1213.1859      188.72365     -1.9984627    
   1490000   299.26238     -3759.2133      1169.0728      85.992437      4.7382068    
   1495000   298.0174      -3758.4075      1212.1056      118.69781      18.658817    
   1500000   296.90238     -3758.4948      1191.9056      88.439588      11.799438    
   1505000   300.2572      -3756.3238      1178.5167      107.22186      7.0298584    
   1510000   303.19418     -3776.9185      1207.7093      142.0836       1.4737639    
   1515000   297.22388     -3755.4243      1208.9868      111.46633      3.5397322    
   1520000   299.80253     -3753.2064      1185.4237      113.18052      1.9876168    
   1525000   303.17693     -3747.7234      1187.8761      151.29122      24.150512    
   1530000   301.63735     -3754.8652      1231.3754      173.88111     -2.8759931    
   1535000   292.8732      -3749.6065      1178.7721      48.163766     -0.68853142   
   1540000   304.65574     -3759.5532      1235.7923      200.60177      11.855586    
   1545000   297.99384     -3841.4861      1232.7931      56.096129      5.4363652    
   1550000   288.58931     -3765.626       1218.8229      33.886684      8.0650993    
   1555000   296.23125     -3753.6207      1189.9888      85.395346     -4.9182239    
   1560000   300.8501      -3769.8337      1225.0975      145.59479      0.029476266  
   1565000   302.29582     -3740.1836      1159.0382      122.11381     -22.637709    
   1570000   304.23805     -3731.8742      1198.2704      187.02368      18.734131    
   1575000   299.72287     -3728.1931      1182.787       134.84475     -16.358747    
   1580000   292.1368      -3736.6826      1231.4594      107.18978      13.080009    
   1585000   297.58131     -3739.2304      1250.5631      172.43281      5.2609115    
   1590000   300.81473     -3739.0455      1212.517       163.48616     -5.3326188    
   1595000   298.36739     -3736.2213      1164.497       96.405252      7.7785061    
   1600000   304.30477     -3739.482       1235.7466      217.48878     -9.007246     
   1605000   298.77495     -3702.1766      1182.3813      151.97871     -6.5471997    
   1610000   304.99616     -3718.2539      1264.0827      273.23563     -0.98924226   
   1615000   302.99076     -3722.1396      1192.8556      180.18968      1.4044071    
   1620000   297.95661     -3736.0914      1227.4801      155.84498      21.164127    
   1625000   298.78682     -3724.8304      1224.8963      171.94623     -2.1987073    
   1630000   288.70376     -3726.3604      1179.6964      35.049164      5.8780769    
   1635000   302.65298     -3735.6728      1168.5365      139.31694      10.730063    
   1640000   301.37194     -3714.9282      1192.8194      172.8888       19.807869    
   1645000   301.5175      -3732.457       1251.8361      215.67838      23.26457     
   1650000   293.97961     -3706.9526      1281.7609      203.70039     -8.5441432    
   1655000   294.52573     -3729.164       1165.0499      69.66168      -23.099074    
   1660000   301.91404     -3715.4205      1259.9378      244.36249     -25.892871    
   1665000   301.44375     -3732.2369      1205.5036      168.90637      24.681956    
   1670000   310.38111     -3718.9403      1216.479       273.10013     -2.1227246    
   1675000   300.44134     -3741.9352      1186.559       131.29953      28.498247    
   1680000   299.57796     -3736.4968      1191.6707      134.12892      10.808522    
   1685000   298.82103     -3732.98        1232.825       172.0312       11.999642    
   1690000   294.59655     -3746.1918      1185.8953      74.112555      18.933482    
   1695000   294.5048      -3726.641       1253.3209      160.26845      6.6721334    
   1700000   305.10254     -3731.0067      1247.0476      244.39913     -22.018298    
   1705000   297.72684     -3720.2082      1190.3001      132.49331     -2.8081222    
   1710000   305.58238     -3742.346       1179.9114      170.21444      47.235112    
   1715000   298.32289     -3756.0723      1175.3732      87.032473     -15.425625    
   1720000   292.68785     -3749.205       1195.5389      63.674555     -15.356679    
   1725000   304.39297     -3740.1212      1261.2096      243.10133     -1.7427192    
   1730000   301.25011     -3749.4654      1170.4814      114.92403     -17.608451    
   1735000   300.43682     -3730.4478      1217.3874      173.57479      7.1068295    
   1740000   300.71709     -3731.6122      1208.6858      166.21521     -14.743147    
   1745000   299.58196     -3730.3612      1202.0514      150.68092     -30.417721    
   1750000   297.18207     -3754.144       1210.3529      113.73871      3.4465655    
   1755000   301.95497     -3763.8619      1220.6837      157.03298      28.31766     
   1760000   306.75045     -3710.3441      1194.5307      227.28108     -16.720265    
   1765000   300.81526     -3708.5145      1231.8895      213.39442      3.42824      
   1770000   297.3062      -3725.9133      1238.4478      171.17439     -10.876225    
   1775000   302.70758     -3726.1459      1231.4065      212.20201     -26.17717     
   1780000   298.87115     -3717.5149      1237.0367      192.15612      2.6037177    
   1785000   291.00652     -3730.5222      1220.951       92.734342      18.72754     
   1790000   295.19177     -3697.4742      1268.1392      210.39684      5.2502115    
   1795000   294.54229     -3700.7543      1243.9437      177.11332     -8.8422437    
   1800000   298.6068      -3733.1889      1228.452       165.53356     -4.8060023    
   1805000   302.83557     -3708.524       1203.5538      203.11572     -9.1753629    
   1810000   301.28749     -3712.2616      1208.6414      190.62213     -4.6617282    
   1815000   299.07853     -3677.9131      1195.5599      192.13572      18.069694    
   1820000   300.98283     -3729.1778      1201.0732      163.41337     -8.3759629    
   1825000   296.84447     -3735.2546      1267.4301      186.6863       17.161474    
   1830000   306.0623      -3707.7065      1205.9899      235.22412     -14.243328    
   1835000   300.29946     -3726.7487      1160.6598      119.31802     -9.3842377    
   1840000   300.78588     -3685.91        1174.7435      178.59018      2.9059247    
   1845000   308.32558     -3706.9625      1225.1741      275.3916       13.145594    
   1850000   301.29881     -3706.6235      1174.7833      162.50343     -4.6729968    
   1855000   291.10116     -3676.4514      1255.437       182.1374      -1.5023828    
   1860000   290.92577     -3679.3681      1185.6485      107.86377     -6.127425     
   1865000   305.97332     -3675.1153      1222.7226      283.75239      13.271297    
   1870000   300.53938     -3690.3238      1207.4756      204.70423      7.6268739    
   1875000   298.6768      -3709.8461      1206.3699      167.42021      15.436898    
   1880000   304.96771     -3701.4443      1228.4768      254.18496      1.8600513    
   1885000   297.58597     -3680.2416      1222.4008      203.30097      17.713146    
   1890000   295.3804      -3685.3591      1231.0641      187.12355     -18.043736    
   1895000   306.56307     -3705.7628      1172.1551      207.81116     -8.8976809    
   1900000   303.42708     -3707.2139      1205.1689      211.33046      12.294013    
   1905000   294.40794     -3698.1292      1150.6426      85.235897     -7.8002732    
   1910000   297.01544     -3688.6835      1279.0009      246.35726     -18.933656    
   1915000   295.59326     -3674.6791      1209.2372      177.88009     -4.2232798    
   1920000   304.72762     -3683.8303      1238.7226      279.8978       14.203465    
   1925000   301.1306      -3691.1481      1266.6593      268.35064     -20.513751    
   1930000   303.87295     -3702.1046      1258.2395      273.49755     -4.0394935    
   1935000   298.48381     -3669.7532      1192.4034      191.8209       2.43415      
   1940000   301.92546     -3687.3045      1217.4418      230.08473      14.703109    
   1945000   301.69719     -3681.6419      1204.1494      220.41352      32.123798    
   1950000   300.30468     -3663.224       1212.7308      234.96042     -5.8630926    
   1955000   294.03134     -3670.3869      1248.1713      207.13911     -30.900059    
   1960000   296.9916      -3656.5278      1140.8886      140.18742     -3.1715849    
   1965000   297.17488     -3690.8357      1212.3928      179.02276      22.249721    
   1970000   299.95279     -3658.7547      1244.678       268.23023     -14.704562    
   1975000   299.60816     -3624.5215      1220.8542      275.55774     -20.593626    
   1980000   303.56465     -3655.3526      1201.7606      261.01375     -0.66529301   
   1985000   300.10446     -3641.5837      1202.5587      244.63814     -44.485337    
   1990000   302.34369     -3646.8927      1183.0667      239.8614      -3.0942807    
   1995000   302.35329     -3665.8569      1151.8462      189.76241      16.443508    
   2000000   297.92215     -3659.1203      1226.174       231.20175      12.137345    
   2005000   310.62924     -3655.475       1233.1486      355.45392      32.260094    
   2010000   298.19326     -3671.9916      1236.2249      230.80563     -12.251154    
   2015000   297.90556     -3667.2969      1216.2038      212.90649      0.91785819   
   2020000   302.40904     -3663.4853      1194.5216      235.30804      10.308022    
   2025000   290.71033     -3640.1112      1216.4726      176.01816     -29.725786    
   2030000   295.70651     -3669.1425      1183.3011      158.4934       31.83809     
   2035000   292.92347     -3650.6976      1235.1644      203.91453     -18.67634     
   2040000   294.14361     -3639.3516      1171.4464      162.45342      6.591005     
   2045000   300.03144     -3622.4435      1242.7211      303.28787      37.601034    
   2050000   299.48699     -3647.9727      1209.75        239.91876      8.4083561    
   2055000   291.90174     -3660.2037      1229.4512      179.55839     -12.4136      
   2060000   300.87174     -3623.1541      1192.8279      260.19831      12.012213    
   2065000   302.69492     -3639.0108      1176.4551      244.27241     -7.6696488    
   2070000   292.94531     -3641.586       1263.489       241.54599     -20.662708    
   2075000   298.18864     -3655.6023      1226.0204      236.94923      28.324943    
   2080000   291.62132     -3634.4495      1251.9996      225.35334      3.2798274    
   2085000   303.53181     -3610.8681      1231.7374      335.18133     -32.312849    
   2090000   300.93572     -3630.147       1283.8068      344.75651     -11.735491    
   2095000   301.75798     -3629.9839      1188.4305      256.8962       3.2162465    
   2100000   307.82375     -3607.3187      1206.9261      352.29988      38.987391    
   2105000   305.96756     -3634.1456      1241.2441      343.19208      13.592529    
   2110000   301.22753     -3648.4786      1240.2437      285.47121      21.907952    
   2115000   301.18212     -3658.9865      1232.8387      267.15224     -3.8195844    
   2120000   292.36656     -3606.1873      1226.1236      234.40384      14.383215    
   2125000   303.67905     -3644.0965      1189.095       260.62717     -6.9558402    
   2130000   297.11693     -3658.045       1194.6017      193.50413     -22.548699    
   2135000   304.48308     -3673.4062      1215.0427      264.45511      0.66985311   
   2140000   307.96148     -3647.1978      1190.5254      297.25168      15.413865    
   2145000   298.61216     -3670.6016      1231.9154      231.63211      2.3877959    
   2150000   301.92436     -3653.1654      1184.7278      231.50002      21.004135    
   2155000   305.5264      -3636.4919      1248.9856      344.64217     -6.6779718    
   2160000   304.10208     -3653.0741      1232.1758      298.51333     -17.152015    
   2165000   297.07657     -3687.2873      1225.4543      194.7535       51.018607    
   2170000   306.96007     -3686.8834      1252.8116      310.89725     -8.6130951    
   2175000   292.89028     -3680.4324      1219.0857      157.80416      14.947111    
   2180000   302.6122      -3660.7471      1218.8478      264.18921     -5.7946044    
   2185000   298.9133      -3692.7076      1229.4187      209.7224       20.940181    
   2190000   298.94722     -3692.0105      1245.5045      226.80865      9.2382952    
   2195000   303.66596     -3662.7712      1227.3719      280.11243      7.0523692    
   2200000   303.72712     -3713.6         1186.5195      188.97817      14.739176    
   2205000   303.68692     -3703.6394      1200.1709      212.23056      32.602685    
   2210000   301.45878     -3686.8081      1217.0153      225.9813      -19.195828    
   2215000   299.81476     -3691.2944      1222.7375      212.51558     -17.666834    
   2220000   296.35953     -3730.6907      1182.1268      101.61058      2.0364206    
   2225000   297.78657     -3729.413       1238.9641      172.48663      6.9582773    
   2230000   304.03465     -3716.4859      1205.0528      207.37551     -29.684963    
   2235000   299.33686     -3686.7383      1250.6057      240.66631     -26.476045    
   2240000   295.34789     -3696.3862      1214.8373      159.57898     -1.2561368    
   2245000   297.29305     -3709.1241      1188.825       138.22327     -13.605096    
   2250000   302.92317     -3737.4668      1209.2805      180.68305     -1.7440115    
   2255000   302.65482     -3717.5298      1230.6934      219.6332      -5.198614     
   2260000   294.30802     -3721.9465      1207.8409      117.72327      16.352165    
   2265000   303.27109     -3725.1068      1253.26        240.13382      14.456154    
   2270000   295.71212     -3698.0235      1242.3115      188.67302      3.5771695    
   2275000   313.91372     -3730.795       1196.7086      273.06516     -15.517244    
   2280000   301.2758      -3681.687       1210.6457      223.09644      20.254082    
   2285000   293.33991     -3724.6557      1182.2749      80.790878      7.7645078    
   2290000   303.60109     -3729.6856      1238.8552      224.1012       19.417449    
   2295000   301.73844     -3713.1283      1222.5386      207.68516     -22.12327     
   2300000   294.4741      -3734.3619      1189.7619      88.714096     -6.0085327    
   2305000   302.70415     -3741.5637      1238.6629      204.00999      23.846257    
   2310000   305.16141     -3730.1543      1216.6227      215.35299      1.2939241    
   2315000   295.98786     -3731.7645      1226.038       141.12417     -24.251403    
   2320000   301.64476     -3740.7407      1201.2244      157.92093      19.040275    
   2325000   295.78818     -3754.8597      1199.2236      89.429005     -9.5666974    
   2330000   300.39139     -3746.0827      1194.7377      134.88397      8.9956103    
   2335000   297.2619      -3743.4694      1174.5785      89.352863     -8.1634906    
   2340000   296.15228     -3751.0637      1234.2485      131.50588     -10.638704    
   2345000   301.38329     -3739.0142      1182.0044      138.0892      -25.285391    
   2350000   304.49222     -3705.283       1257.1793      274.79661     -1.5825107    
   2355000   301.60108     -3697.3624      1199.7013      199.3855       28.907767    
   2360000   302.9041      -3684.8132      1233.8826      257.76818     -18.395614    
   2365000   298.67828     -3673.0264      1208.0561      205.93935     -2.0272623    
   2370000   305.31038     -3688.0094      1176.8409      219.0482       0.24698241   
   2375000   302.24124     -3691.322       1244.8605      256.30958      9.2777218    
   2380000   294.72903     -3677.2916      1189.9988      148.30088      9.4221578    
   2385000   302.28116     -3674.4703      1228.9741      257.63187      9.8274672    
   2390000   300.4599      -3731.522       1174.7553      130.07498      30.199886    
   2395000   298.66101     -3668.2496      1249.372       251.87762      26.837988    
   2400000   294.79613     -3685.8474      1228.8451      179.19141      7.0537991    
   2405000   299.28528     -3684.4201      1241.1934      233.11106     -9.6308197    
   2410000   302.68796     -3702.044       1260.6679      265.38978     -4.9696418    
   2415000   300.36686     -3676.1399      1208.5663      218.43613      27.052248    
   2420000   304.69652     -3665.5459      1178.3153      237.49679     -9.1125759    
   2425000   301.02699     -3710.5322      1251.5291      232.9098       15.259372    
   2430000   297.62106     -3708.9895      1191.1273      143.59339      8.400268     
   2435000   303.13827     -3679.0547      1230.4588      262.19698     -13.140688    
   2440000   302.80594     -3685.7145      1247.7399      269.84637      24.838151    
   2445000   300.72875     -3723.1134      1200.2502      166.38263      5.0185299    
   2450000   302.97685     -3714.3341      1225.4066      220.42186      7.4416597    
   2455000   302.8567      -3664.2784      1228.8001      272.79656     -16.212391    
   2460000   297.32395     -3675.0063      1215.3542      199.14661     -24.680324    
   2465000   300.77643     -3673.6289      1205.3148      221.35811      13.544442    
   2470000   305.05958     -3687.6743      1238.8379      279.13763      1.1357138    
   2475000   297.91105     -3679.3546      1219.6543      204.34845     -24.27923     
   2480000   309.02098     -3704.0706      1218.692       278.01987      27.371692    
   2485000   297.94042     -3713.831       1236.2097      186.69011      33.755682    
   2490000   297.06896     -3687.243       1194.3182      163.59357     -1.7272839    
   2495000   303.79928     -3697.5971      1273.5356      292.64232      14.759365    
   2500000   301.87659     -3668.5001      1184.3289      215.33912     -0.8921442    
   2505000   297.11771     -3664.3296      1240.932       233.55676      10.275721    
   2510000   303.29778     -3683.0739      1163.1192      192.26446     -17.636862    
   2515000   299.95793     -3679.0252      1202.6598      205.98747     -16.033968    
   2520000   297.68018     -3691.5888      1215.7578      186.15321      4.4263574    
   2525000   300.86745     -3651.048       1219.6711      259.10929      3.9168802    
   2530000   300.98525     -3629.8847      1254.8679      316.5228       16.092412    
   2535000   298.67908     -3656.7533      1157.5874      171.75091     -21.741424    
   2540000   302.72563     -3670.9103      1198.6548      234.84732      1.3869954    
   2545000   299.10183     -3677.8944      1213.5198      210.32256     -8.9398534    
   2550000   305.0785      -3647.432       1216.3955      297.10664     -6.8121005    
   2555000   301.97234     -3664.2749      1224.6464      260.73796      10.717289    
   2560000   307.64779     -3678.3302      1242.6139      315.4025       2.852983     
   2565000   292.03457     -3713.3813      1216.0715      114.18893      22.142877    
   2570000   302.03533     -3682.716       1206.0903      224.30418     -0.66746784   
   2575000   308.82342     -3656.6259      1195.9314      300.93748      12.502087    
   2580000   302.16746     -3665.112       1204.792       241.79151     -4.0110165    
   2585000   296.61504     -3672.2851      1213.6289      193.80304      3.5005893    
   2590000   298.8319      -3690.0239      1219.4714      201.73087      19.758705    
   2595000   289.57449     -3678.1403      1250.6699      162.02927     -23.640001    
   2600000   297.50791     -3684.8373      1232.2373      207.84369      10.145779    
   2605000   295.89084     -3679.4282      1183.7032      150.25819      4.3976928    
   2610000   300.75232     -3696.2572      1177.5339      170.73324     -9.1461165    
   2615000   300.10241     -3674.7607      1219.009       227.8931      -16.486243    
   2620000   305.23359     -3652.2858      1192.2476      269.49181      4.0947006    
   2625000   305.01742     -3666.8461      1200.343       261.09391      21.493811    
   2630000   308.82994     -3654.4929      1252.1725      359.36978      32.737769    
   2635000   302.481       -3645.884       1171.1381      230.16937      21.151366    
   2640000   306.04161     -3622.9072      1226.6948      340.54328     -2.1455201    
   2645000   305.22512     -3622.1534      1143.4666      250.7676       15.309347    
   2650000   301.17452     -3635.3933      1225.6147      283.4534      -6.2185535    
   2655000   298.07183     -3636.1096      1217.3778      246.75476      33.02639     
   2660000   300.93041     -3636.9856      1228.7344      282.79797     -4.1842931    
   2665000   297.18253     -3631.999       1217.8657      243.40066      1.2361714    
   2670000   297.08493     -3629.7277      1169.503       196.43651     -15.65591     
   2675000   298.23532     -3635.7712      1293.4328      324.61004     -10.076957    
   2680000   290.79411     -3676.892       1209.9349      133.44893      14.535657    
   2685000   305.77737     -3639.0757      1173.5308      268.84795      16.257508    
   2690000   302.63704     -3629.7505      1239.5271      316.08724     -5.6291343    
   2695000   299.31641     -3653.0027      1218.4469      242.06038      0.42073437   
   2700000   301.41134     -3594.7034      1199.5849      300.23143     -8.6645136    
   2705000   303.69417     -3612.6672      1229.2628      332.35953     -28.733672    
   2710000   301.52563     -3615.6236      1236.2349      316.98315     -0.60295899   
   2715000   306.98077     -3666.701       1230.6342      309.08737      16.255207    
   2720000   298.06824     -3624.5861      1193.8535      234.72187     -9.5043078    
   2725000   306.83207     -3644.2489      1198.488       298.06335     -0.3749645    
   2730000   305.44582     -3678.7903      1188.0718      240.70942      0.22089502   
   2735000   293.34072     -3619.5671      1216.7637      220.37546      18.641453    
   2740000   302.49823     -3641.3272      1173.3693      237.11139      23.425694    
   2745000   291.03183     -3635.2316      1196.3091      163.60928     -11.743527    
   2750000   311.09602     -3629.5967      1269.0482      421.40594      0.35266629   
   2755000   308.00104     -3629.432       1119.2458      244.09161     -33.322733    
   2760000   291.87393     -3634.7392      1206.5809      181.90391      24.433709    
   2765000   307.12593     -3642.053       1229.2508      333.65002      5.8305016    
   2770000   291.35262     -3641.551       1201.1214      164.97091      7.0901842    
   2775000   303.20097     -3630.6962      1228.0956      308.7529      -2.4359894    
   2780000   293.57562     -3637.4069      1235.9907      223.86332     -9.5052905    
   2785000   296.13049     -3669.4068      1208.7102      187.42964      18.501377    
   2790000   298.50659     -3680.9383      1252.6489      241.0849       8.3401305    
   2795000   302.84486     -3707.5581      1201.9583      202.56918     -5.8991629    
   2800000   297.55208     -3680.8705      1176.6784      156.64666     -21.763093    
   2805000   300.2537      -3698.4621      1221.028       207.56366      13.156816    
   2810000   309.90676     -3680.0585      1199.8378      291.09876     -7.0804968    
   2815000   303.47012     -3665.1519      1213.0879      261.69631      20.300642    
   2820000   302.19718     -3689.5462      1239.2684      252.09936      25.006073    
   2825000   297.09691     -3692.7204      1244.2048      208.25281     -6.5594113    
   2830000   297.80823     -3664.3598      1215.3416      214.11105      0.33937218   
   2835000   301.87328     -3683.9299      1245.7776      261.32848      2.2023737    
   2840000   300.74123     -3653.8706      1226.8006      262.28738     -19.763165    
   2845000   300.97808     -3666.4756      1253.2622      278.26207      5.7698319    
   2850000   303.33978     -3645.5944      1189.3525      256.3529       14.65827     
   2855000   296.30118     -3684.1728      1212.4083      177.88812     -1.6694238    
   2860000   296.75393     -3704.6571      1223.9042      172.94836     -18.781972    
   2865000   295.0539      -3697.3284      1249.7795      190.94999      2.724394     
   2870000   295.47517     -3690.6219      1178.419       130.06319     -6.2042316    
   2875000   299.80488     -3715.1713      1241.1799      206.99279      13.289203    
   2880000   312.26269     -3707.7863      1196.1733      280.77431      11.405134    
   2885000   299.74579     -3658.994       1228.2329      249.69475      12.874094    
   2890000   298.08555     -3680.0664      1243.6265      229.16926      6.9716213    
   2895000   300.29961     -3715.7628      1230.0412      199.68665     -7.3532565    
   2900000   302.10637     -3681.4706      1202.637       222.73156     -7.3541063    
   2905000   293.76136     -3670.8005      1219.9752      176.11513      8.724521     
   2910000   293.95331     -3697.3121      1205.4371      136.78194     -7.1768861    
   2915000   300.92471     -3707.9441      1195.744       178.79812      13.496367    
   2920000   300.2848      -3723.6587      1238.597       200.21411      28.333137    
   2925000   297.42037     -3696.2329      1178.3615      141.78943      13.530776    
   2930000   304.27212     -3697.3232      1231.191       254.80008      9.2345441    
   2935000   305.18633     -3653.8088      1220.38        295.67869      28.452141    
   2940000   303.44511     -3707.8265      1192.5439      198.25399      23.555061    
   2945000   299.82337     -3677.9506      1177.4835      180.68237     -19.065592    
   2950000   298.3167      -3667.9853      1191.0956      190.78649      6.1985406    
   2955000   303.36857     -3704.0698      1210.5489      219.33141      10.448593    
   2960000   301.51818     -3673.1484      1212.2272      235.38401      2.3130163    
   2965000   298.12011     -3683.4496      1249.2369      231.70556      15.3264      
   2970000   299.48612     -3664.6865      1244.1371      257.58431     -16.579409    
   2975000   295.07886     -3651.5472      1233.7835      220.95845     -6.8582606    
   2980000   302.34482     -3646.8267      1206.7263      263.59708     -18.8804      
   2985000   305.42207     -3708.2605      1258.8753      281.8303      -7.3626934    
   2990000   303.83753     -3698.4785      1208.4759      227.04328     -26.334799    
   2995000   292.81435     -3663.6484      1224.9583      179.78179     -21.487968    
   3000000   300.92411     -3681.7203      1188.0256      197.29814     -17.966485    
   3005000   297.95938     -3704.826       1207.6535      167.30837      24.683461    
   3010000   300.71571     -3661.6249      1209.1997      236.70401     -7.6907372    
   3015000   298.88056     -3687.7574      1193.4163      178.37743     -26.112562    
   3020000   302.73225     -3691.0703      1241.5052      257.59689     -35.433423    
   3025000   300.19861     -3695.3856      1227.3528      216.47231      8.1760914    
   3030000   299.44517     -3723.6211      1213.7877      167.93409     -7.1179495    
   3035000   295.75487     -3689.7451      1180.0563      135.07847     -12.654725    
   3040000   309.27721     -3722.5643      1189.9097      233.03516     -13.823863    
   3045000   301.15285     -3716.7619      1177.4686      153.74506      18.023898    
   3050000   294.50456     -3688.0053      1199.0564      144.63755     -13.807223    
   3055000   296.87625     -3729.6579      1190.9264      116.06365      25.822702    
   3060000   303.38879     -3721.546       1219.3792      210.86623      13.469269    
   3065000   299.63776     -3754.2913      1222.4419      147.64027      13.452385    
   3070000   295.80803     -3732.5367      1179.3831      92.08911      -7.618691     
   3075000   296.06307     -3736.6651      1262.0562      172.91442     -27.791556    
   3080000   308.31774     -3716.5613      1236.6433      277.19182      11.039787    
   3085000   301.95425     -3712.7735      1192.7007      180.132       -2.1405403    
   3090000   305.58221     -3721.4076      1186.1508      197.3908       24.974397    
   3095000   304.31926     -3746.6535      1188.018       162.71821      25.552354    
   3100000   302.90462     -3751.5518      1228.5947      185.74633     -17.573255    
   3105000   302.89982     -3749.5903      1220.2949      179.36511     -8.1536975    
   3110000   299.18495     -3746.7998      1251.3251      179.96587      17.42371     
   3115000   301.14373     -3746.2203      1180.4963      127.23288     -17.575789    
   3120000   293.45733     -3693.9489      1261.4983      191.77103     -17.053269    
   3125000   306.04816     -3756.3192      1183.0811      163.57622      23.904848    
   3130000   302.3873      -3732.3988      1209.8719      181.5504      -8.0375317    
   3135000   302.60178     -3740.9062      1224.0272      189.11627     -4.8863441    
   3140000   303.88178     -3722.4864      1247.4961      242.45134      0.30927015   
   3145000   302.33365     -3710.1399      1217.0845      210.54217     -14.922687    
   3150000   289.01599     -3737.5556      1194.3738      41.32347      -5.9608222    
   3155000   298.00289     -3760.9985      1206.4716      110.34311      11.107336    
   3160000   301.07085     -3722.388       1200.0427      169.95978     -6.1378107    
   3165000   300.52111     -3747.4787      1241.3906      181.30098     -4.5944347    
   3170000   300.58155     -3726.4043      1235.7991      197.3243      -12.472209    
   3175000   301.8951      -3725.9794      1155.9619      129.65839      11.841643    
   3180000   297.51403     -3727.8283      1186.5064      119.17652      19.014453    
   3185000   297.6732      -3740.9864      1203.7597      124.69501     -10.207943    
   3190000   308.90338     -3720.1895      1210.214       252.37141      15.067834    
   3195000   296.33913     -3745.3199      1238.526       143.19814     -5.5272515    
   3200000   303.48268     -3749.489       1270.8151      235.19876      10.838085    
   3205000   298.13389     -3723.9422      1190.0183      132.11758      6.3393399    
   3210000   305.61801     -3710.6835      1193.3236      215.60788      6.2323       
   3215000   301.337       -3745.3041      1239.1527      188.53359      13.950359    
   3220000   295.86932     -3750.4062      1173.2391      68.623566     -8.6561265    
   3225000   294.99878     -3738.4176      1200.8182      100.4066      -12.899885    
   3230000   296.3601      -3708.4307      1195.4111      137.16        -15.419406    
   3235000   302.10027     -3712.9444      1220.2501      208.81623      17.202372    
   3240000   303.72935     -3734.4025      1220.8674      202.54345      13.40009     
   3245000   305.17815     -3718.6395      1213.3809      223.77565      10.055804    
   3250000   300.72901     -3751.678       1242.01        179.58025      14.120105    
   3255000   297.26183     -3751.972       1190.9597      97.230793      10.311212    
   3260000   301.85522     -3740.8201      1233.7134      192.21258      11.376484    
   3265000   290.78738     -3764.8787      1188.6018      24.069024     -11.196123    
   3270000   304.37019     -3750.2728      1247.0109      218.54732     -21.123404    
   3275000   298.13402     -3716.2773      1221.0388      170.80419      18.659892    
   3280000   304.16094     -3749.4437      1200.4646      170.9588      -12.164332    
   3285000   302.83322     -3766.1237      1206.1868      148.12799      11.663402    
   3290000   300.78358     -3721.7474      1185.8554      153.84418      21.775771    
   3295000   300.97796     -3747.7908      1172.202       115.88561      11.679361    
   3300000   301.32811     -3757.5745      1210.4187      147.44981     -19.216155    
   3305000   292.16828     -3730.0174      1195.976       78.653007     -24.961322    
   3310000   303.58809     -3763.8406      1187.3097      138.28444      22.542032    
   3315000   300.22379     -3736.2727      1237.2275      185.68509      4.0605117    
   3320000   308.82327     -3754.633       1243.2479      250.24546      13.050789    
   3325000   295.27702     -3761.6024      1215.3208      94.212528      20.835144    
   3330000   288.51945     -3720.1535      1212.7342      72.645703     -12.725014    
   3335000   309.26218     -3776.4393      1248.5946      237.71074     -17.117833    
   3340000   295.11631     -3742.5581      1216.2436      112.74253      5.0584147    
   3345000   297.30586     -3792.262       1225.0723      91.447184     -5.6741685    
   3350000   303.68669     -3759.5813      1218.1887      174.30438      17.092201    
   3355000   305.94586     -3756.6276      1227.4968      206.76867      30.322747    
   3360000   291.89227     -3751.1654      1193.8085      52.869427      4.87957      
   3365000   306.44495     -3761.1303      1152.7791      132.01128     -6.2948629    
   3370000   295.52159     -3748.1441      1190.5594      85.096549      8.0495006    
   3375000   301.90269     -3719.8901      1212.5156      192.36925     -0.092600977  
   3380000   300.63735     -3757.4047      1233.0549      164.07874      7.8686804    
   3385000   301.7347      -3770.5312      1228.4561      156.16642      1.9694351    
   3390000   298.97056     -3717.5046      1202.7903      158.80895     -46.110182    
   3395000   302.2364      -3746.1068      1178.7249      135.34598      6.462802     
   3400000   297.39772     -3749.2019      1230.1978      140.45423     -17.363773    
   3405000   300.47257     -3721.9641      1231.1933      196.18418      18.5198      
   3410000   298.72399     -3714.9623      1184.9621      141.3182       24.321933    
   3415000   295.63713     -3735.3498      1230.8211      139.18572     -5.610795     
   3420000   307.4585      -3723.5403      1239.8734      265.75919      10.553377    
   3425000   299.33337     -3697.5004      1206.3182      185.58552     -5.3312587    
   3430000   300.01235     -3701.1208      1196.4259      178.14451      7.014263     
   3435000   299.03692     -3715.965       1231.6934      189.84523     -13.137868    
   3440000   302.78577     -3707.0476      1227.2599      227.853       -33.500758    
   3445000   306.93293     -3700.7717      1241.7147      285.66922      2.58103      
   3450000   299.57721     -3695.0279      1221.5099      205.4303       7.2791429    
   3455000   305.75964     -3715.0985      1207.1106      226.24632      25.721661    
   3460000   301.66231     -3741.127       1207.6203      164.08737      18.376805    
   3465000   306.66247     -3711.3827      1190.9123      221.8373       12.22049     
   3470000   308.39841     -3701.6889      1230.7686      286.91095      2.1623998    
   3475000   303.78685     -3687.9925      1226.8134      255.4136       5.3448107    
   3480000   309.69051     -3705.4476      1206.1515      270.08968      20.671434    
   3485000   302.3404      -3723.8965      1239.0063      218.76765      0.93415999   
   3490000   303.00063     -3723.3668      1212.9112      199.10641      26.025634    
   3495000   296.73671     -3702.862       1212.4858      163.171        12.310654    
   3500000   296.2646      -3718.1275      1208.5228      139.72078      12.249279    
   3505000   297.64679     -3710.9883      1207.8093      158.5066      -25.461859    
   3510000   296.20654     -3728.5121      1220.4747      140.7688      -19.779068    
   3515000   298.37474     -3732.9137      1240.7947      176.07629     -11.01567     
   3520000   296.59676     -3724.4328      1206.1619      134.02481      35.298796    
   3525000   297.82055     -3730.2299      1222.1229      155.13245     -19.07544     
   3530000   307.73502     -3741.181       1222.064       232.78189     -21.953552    
   3535000   301.94886     -3727.5582      1179.1538      151.75225      15.510729    
   3540000   294.91291     -3725.4289      1241.892       153.70121     -3.067657     
   3545000   303.42565     -3703.2612      1192.2931      202.39452     -31.462754    
   3550000   299.29901     -3721.0455      1195.1358      150.55078     -0.92731927   
   3555000   292.7524      -3708.3213      1241.3598      150.95637     -25.439952    
   3560000   294.36501     -3716.2034      1218.0302      134.1653       12.244323    
   3565000   305.14913     -3754.6888      1222.2631      196.34911      5.0052035    
   3570000   300.35622     -3724.6545      1269.9906      231.25056      1.4753793    
   3575000   287.54855     -3720.9326      1193.3731      43.823348      3.7521879    
   3580000   296.56752     -3724.3907      1215.988       143.63157     -3.2453499    
   3585000   304.14419     -3723.1721      1254.5594      251.17546     -1.482387     
   3590000   301.51847     -3725.9901      1236.2862      206.60402      8.7088759    
   3595000   297.30794     -3717.7975      1257.3685      198.22642     -5.774385     
   3600000   297.87936     -3713.0674      1206.3756      157.07359      10.477231    
   3605000   300.99689     -3749.8759      1236.2317      177.99942      19.212266    
   3610000   298.47717     -3744.9111      1212.8863      137.08643     -7.3182478    
   3615000   306.8025      -3756.6671      1195.3006      182.19348      18.438896    
   3620000   300.41898     -3766.576       1197.1075      117.00723     -4.3818209    
   3625000   305.09657     -3772.1281      1147.1267      103.30334      17.003006    
   3630000   298.9228      -3748.2413      1181.9621      106.81713     -10.026852    
   3635000   305.06109     -3754.8771      1225.8463      198.95675      14.388352    
   3640000   293.59892     -3740.5291      1194.6494      79.608145     -10.093635    
   3645000   303.21893     -3741.426       1168.6003      138.68838      29.117656    
   3650000   295.42289     -3751.8958      1189.6349      79.537656     -17.780319    
   3655000   304.41033     -3772.0701      1208.3121      158.41021      1.062896     
   3660000   295.93541     -3733.6905      1181.8289      94.52009      -6.6113139    
   3665000   299.32537     -3763.7855      1205.5565      118.46717      0.81761163   
   3670000   296.0849      -3759.6065      1182.808       70.92006      -15.527183    
   3675000   300.15335     -3774.9849      1200.7399      109.85537      17.808836    
   3680000   304.66504     -3743.2654      1232.0101      213.19053     -4.1357136    
   3685000   302.84245     -3750.473       1187.6831      145.35753     -16.50509     
   3690000   299.07634     -3760.4529      1182.1805      96.196853     -15.32372     
   3695000   298.28366     -3757.4272      1219.393       129.34663      7.5247582    
   3700000   300.96636     -3733.1578      1195.5953      153.80811     -1.5705709    
   3705000   303.3747      -3749.8315      1171.9383      135.01392      17.539648    
   3710000   305.50959     -3728.0853      1195.405       199.31794      30.049658    
   3715000   302.66066     -3715.3413      1200.8609      192.04136      4.3941325    
   3720000   304.74375     -3710.1686      1181.175       196.15606      15.692149    
   3725000   304.50544     -3718.9684      1209.7655      213.8158      -31.662109    
   3730000   304.44551     -3744.7951      1211.7606      189.44813     -8.7262324    
   3735000   307.80628     -3736.7063      1223.3505      239.18033      0.20421261   
   3740000   293.98665     -3747.0664      1235.2182      117.10695     -13.910375    
   3745000   296.01168     -3745.5051      1204.413       105.97165      15.775809    
   3750000   291.22121     -3753.5852      1208.8196      59.459749     -16.083914    
   3755000   297.78391     -3742.9403      1266.3117      186.28321     -5.4933667    
   3760000   295.53098     -3750.9237      1176.0127      67.854281     -30.899475    
   3765000   303.61264     -3768.3621      1152.116       98.788686      0.44367589   
   3770000   303.4355      -3790.2478      1230.2524      153.45545     -0.17518534   
   3775000   294.12463     -3778.0087      1234.1162      86.296443     -8.9815728    
   3780000   301.84335     -3820.2678      1227.8302      106.77544     -20.787451    
   3785000   300.49001     -3798.4827      1219.3715      107.9998       5.8501185    
   3790000   305.1835      -3814.8853      1128.0366      42.23348      -14.113092    
   3795000   300.28722     -3788.5168      1205.8215      102.60216     -1.0987142    
   3800000   297.7653      -3791.7761      1136.0935      7.0628241      4.8399643    
   3805000   297.18907     -3795.0822      1217.3176      79.827833      34.781327    
   3810000   289.98919     -3752.512       1227.6016      68.297753     -16.650538    
   3815000   292.64867     -3782.0747      1150.7533     -14.331113      17.280976    
   3820000   302.78431     -3761.5909      1224.0537      170.09042      19.32138     
   3825000   308.53524     -3798.6164      1278.2128      238.65125      13.006538    
   3830000   311.1291      -3786.461       1236.5589      232.34825      4.867106     
   3835000   296.38629     -3788.5351      1197.0959      58.974445      23.723272    
   3840000   299.72743     -3788.0252      1246.6563      138.92276      12.964461    
   3845000   298.55522     -3787.7473      1193.5451      75.606985      12.57156     
   3850000   297.20315     -3780.0782      1186.3826      64.022837      35.229772    
   3855000   301.60777     -3785.302       1220.2025      132.00686      10.917284    
   3860000   291.00794     -3793.5561      1233.9192      42.681328      35.782353    
   3865000   298.50899     -3784.0301      1205.3463      90.711984     -23.722239    
   3870000   304.36017     -3788.6771      1236.0838      169.12621      7.7822744    
   3875000   306.36497     -3761.673       1195.8235      173.79787     -16.54777     
   3880000   289.94949     -3769.7107      1173.2673     -3.5904132      10.834042    
   3885000   302.77185     -3754.5166      1188.5925      141.59198      18.791448    
   3890000   303.93141     -3731.5863      1179.4746      165.77368      9.0913945    
   3895000   294.57608     -3773.7219      1225.6162      86.120364     -26.348268    
   3900000   303.1309      -3767.6892      1235.0737      178.11146      11.298852    
   3905000   297.76037     -3738.8265      1158.2655      82.140238      10.41808     
   3910000   300.54848     -3788.9312      1203.0856      101.78817      21.441006    
   3915000   299.38627     -3784.9809      1245.228       137.48787     -6.0425328    
   3920000   303.64284     -3789.7971      1205.9362      131.44407     -2.8056733    
   3925000   304.48908     -3795.9529      1195.4002      122.3196       7.2189346    
   3930000   304.31477     -3802.5833      1235.8455      154.5758      -11.444338    
   3935000   308.08027     -3802.28        1185.1504      137.85666     -15.819756    
   3940000   300.57095     -3754.5654      1205.1928      138.46216     -17.424039    
   3945000   300.19217     -3716.0455      1238.6088      207.01079      14.984227    
   3950000   301.8243      -3751.6172      1230.6328      178.05835      5.1485454    
   3955000   302.20124     -3746.3689      1215.6412      171.68588     -7.5285759    
   3960000   299.53307     -3764.2557      1166.6353      80.933131      2.4533295    
   3965000   293.87263     -3755.2436      1193.6058      66.297654      12.542428    
   3970000   293.60089     -3745.7971      1194.336       74.04426      -15.100534    
   3975000   299.19163     -3775.1274      1229.0635      129.43636     -0.47768511   
   3980000   299.33537     -3755.6388      1234.8775      156.02436     -14.791618    
   3985000   303.58721     -3772.3894      1191.8416      134.25965     -4.3063854    
   3990000   294.74358     -3711.6708      1202.7426      126.79572      1.3351839    
   3995000   296.23939     -3731.8996      1219.0633      136.26377      29.341354    
   4000000   299.87861     -3754.3028      1254.0527      181.39341      11.074822    
   4005000   306.27169     -3721.4695      1238.9573      256.30098     -18.145551    
   4010000   301.46872     -3725.1136      1217.0388      187.78818     -10.995821    
   4015000   299.18962     -3720.0841      1247.0423      202.44053      11.352451    
   4020000   298.1422      -3721.0369      1255.0753      200.15411     -13.92425     
   4025000   300.01233     -3751.6671      1172.2538      103.42598      1.0135977    
   4030000   296.96494     -3721.7937      1207.0721      140.86657      4.2271557    
   4035000   296.18416     -3735.3695      1170.8217      84.058338     -1.2723367    
   4040000   303.76411     -3747.7128      1223.317       191.9935      -4.4383657    
   4045000   309.19738     -3758.2717      1233.5486      240.25286      8.2782978    
   4050000   302.43824     -3712.3467      1190.0978      182.28399     -5.0563624    
   4055000   301.52631     -3733.2231      1249.4146      212.56947      6.027904     
[...]
  23945000   299.6642      -3655.6369      1177.9562      202.04551     -7.1882846    
  23950000   296.932       -3688.574       1236.9774      203.697        22.080764    
  23955000   299.57133     -3683.5478      1227.6266      222.97453     -15.814825    
  23960000   298.09379     -3700.1765      1200.7988      166.30513      11.2681      
  23965000   295.94547     -3701.4528      1211.4726      156.49154      21.855154    
  23970000   300.64477     -3687.0133      1189.1988      190.68048      7.3052603    
  23975000   296.20475     -3709.7477      1196.156       135.19864      9.681441     
  23980000   310.73462     -3700.101       1183.9606      262.58226     -9.4881133    
  23985000   301.28781     -3718.987       1244.4708      219.729        5.7903192    
  23990000   299.50332     -3723.1613      1208.4382      163.5645       10.840855    
  23995000   301.76789     -3683.9445      1198.6666      213.26042      4.5087242    
  24000000   311.55447     -3703.4322      1206.3383      288.96008      18.438102    
  24005000   301.63389     -3719.6267      1245.6259      223.3392      -12.823437    
  24010000   299.07775     -3720.1278      1223.4322      177.78632      7.2873746    
  24015000   294.17476     -3692.2452      1264.4         202.79211      10.651571    
  24020000   300.59386     -3701.5686      1213.4452      199.91626      16.527121    
  24025000   298.32158     -3715.7437      1252.1919      204.16804      8.2634908    
  24030000   296.01421     -3673.4067      1208.9099      182.58964      3.6830758    
  24035000   299.66279     -3672.2486      1277.6409      285.10584     -27.510515    
  24040000   301.58132     -3661.8864      1215.9476      250.93116      28.262698    
  24045000   307.05754     -3650.0341      1252.8515      348.65802     -10.063005    
  24050000   309.05665     -3664.9675      1217.4895      316.23952     -8.3133685    
  24055000   300.88679     -3666.6183      1194.7192      218.75996      8.1387007    
  24060000   297.30172     -3668.9297      1184.7882      174.45841     -28.741775    
  24065000   307.65008     -3670.1352      1215.4383      296.44243      14.102068    
  24070000   303.99674     -3674.8084      1219.5506      263.21177      21.018699    
  24075000   302.22996     -3687.0166      1231.8869      247.54066     -4.6374776    
  24080000   302.38416     -3666.0157      1187.5714      225.60491     -1.5626686    
  24085000   298.01891     -3633.5662      1186.9621      218.40927     -1.3912903    
  24090000   296.16857     -3667.8624      1183.0021      163.60645      3.7013842    
  24095000   293.97159     -3691.1874      1207.1818      144.81478     -10.324397    
  24100000   295.31979     -3699.0238      1265.0859      206.93861      5.4013822    
  24105000   303.83039     -3652.3532      1202.4784      267.10731     -3.5299281    
  24110000   297.77135     -3678.4441      1208.6795      193.03487     -7.0385278    
  24115000   301.38294     -3711.3178      1253.5286      237.30676     -10.071131    
  24120000   298.79435     -3672.0056      1160.7403      160.68225     -18.719635    
  24125000   304.37488     -3674.0573      1198.651       246.44481      1.9150355    
  24130000   295.91281     -3713.3932      1225.2942      158.08065     -5.7710468    
  24135000   303.01141     -3663.0096      1182.975       229.62371     -3.556386     
  24140000   302.07702     -3713.9609      1189.7144      177.05621      10.92531     
  24145000   292.2781      -3704.0505      1241.7658      151.39185     -18.38208     
  24150000   303.84081     -3698.8457      1198.0083      216.23782      5.5063484    
  24155000   304.95744     -3696.5482      1190.7912      221.3037       12.743817    
  24160000   297.08991     -3702.4059      1210.0143      164.31413      24.707365    
  24165000   298.22576     -3695.6324      1263.5895      234.82016      3.2074528    
  24170000   301.95034     -3735.3565      1185.6235      150.43676      21.527228    
  24175000   295.13798     -3692.9077      1222.7495      169.09259     -0.40901828   
  24180000   302.61674     -3701.8176      1188.0944      192.4059      -3.5609863    
  24185000   305.46657     -3678.1515      1225.4434      278.90536      28.36661     
  24190000   303.45249     -3653.8375      1215.692       275.45709     -10.594979    
  24195000   298.224       -3660.145       1211.2019      217.90423     -1.5194551    
  24200000   299.67807     -3667.735       1204.0304      216.14558     -15.527266    
  24205000   304.98456     -3643.465       1238.8819      322.72004      9.5115126    
  24210000   301.0563      -3640.5219      1240.8543      292.50724     -12.534543    
  24215000   303.40196     -3657.3154      1211.0391      266.87458     -3.0745254    
  24220000   304.26196     -3635.5585      1171.3244      256.60727     -1.4919792    
  24225000   298.56037     -3633.2803      1202.7583      239.3333       22.972112    
  24230000   297.55883     -3663.0332      1233.1224      230.98829     -1.8573034    
  24235000   310.65313     -3634.0247      1230.6793      374.64855      25.166936    
  24240000   303.73586     -3608.1944      1209.0526      316.99484     -10.701143    
  24245000   302.5318      -3616.5054      1228.9175      317.78161      6.7124854    
  24250000   307.18939     -3654.6656      1202.311       294.66498      26.284619    
  24255000   296.59049     -3651.1815      1172.9636      174.02181     -7.1413435    
  24260000   295.91444     -3673.8174      1278.8102      251.18697     -25.008321    
  24265000   293.01601     -3654.0407      1258.997       225.23153     -1.4650258    
  24270000   292.20424     -3639.6723      1200.2641      173.60789      19.959461    
  24275000   305.46151     -3666.6017      1240.2784      305.24493      4.8073309    
  24280000   297.66871     -3655.173       1230.3232      237.03185     -20.80582     
  24285000   306.08681     -3680.3949      1208.1087      264.87378      23.947274    
  24290000   302.22098     -3674.9893      1232.1781      259.77878      14.614372    
  24295000   302.51669     -3671.4093      1219.1637      252.98885      1.6477161    
  24300000   303.15495     -3666.442       1184.8121      229.31202      13.868533    
  24305000   295.78577     -3658.9895      1256.9298      242.98386      5.347145     
  24310000   309.2071      -3690.4889      1211.455       286.02899     -13.587165    
  24315000   302.19502     -3680.5046      1145.6209      167.47415      0.14702263   
  24320000   300.5735      -3663.7767      1165.7687      189.84948      19.312792    
  24325000   299.24363     -3667.2563      1242.7489      251.45783      7.1729749    
  24330000   293.81337     -3668.3318      1213.6527      172.72638      16.036083    
  24335000   295.73029     -3678.9614      1241.7873      207.37335      7.756311     
  24340000   297.25943     -3697.6774      1239.0443      199.58858     -15.500631    
  24345000   302.15817     -3709.5313      1188.17        180.66711     -8.0431875    
  24350000   299.25032     -3652.766       1195.8625      219.12159      8.1746124    
  24355000   301.64377     -3669.7072      1175.5839      203.305       -12.321275    
  24360000   291.42424     -3707.086       1192.4383      91.3932       -16.534832    
  24365000   294.0103      -3730.5937      1235.0677      133.64064      26.697884    
  24370000   305.96716     -3721.0292      1239.2543      254.31517     -4.8659659    
  24375000   297.26431     -3704.1555      1227.2335      181.34329     -10.040474    
  24380000   306.26351     -3664.2108      1250.0103      324.53958     -9.4814779    
  24385000   303.79797     -3700.0593      1216.9072      233.54003     -9.2158732    
  24390000   307.1716      -3678.8867      1205.7432      273.71709     -2.9543963    
  24395000   314.24918     -3704.2902      1217.2014      323.06255      9.5327997    
  24400000   297.58465     -3726.564       1189.863       124.42892      15.829328    
  24405000   288.84055     -3731.1009      1230.3732      82.208815     -11.010919    
  24410000   300.87924     -3742.4005      1212.5238      160.71488     -2.2634267    
  24415000   313.52376     -3728.2229      1167.8604      243.30186      9.852741     
  24420000   301.13605     -3716.3271      1217.5683      194.1293       15.362326    
  24425000   302.63717     -3728.3785      1232.1392      210.07238      29.777184    
  24430000   291.45753     -3716.0146      1245.1203      135.44431      21.865039    
  24435000   310.32811     -3707.1417      1222.843       290.78876      26.523822    
  24440000   298.00689     -3721.9971      1170.1066      113.01532     -22.073255    
  24445000   305.32582     -3700.1376      1221.4453      251.66251     -6.3760998    
  24450000   301.62194     -3680.458       1206.8859      223.66106      15.210376    
  24455000   296.44058     -3719.7145      1212.6873      143.87196     -11.922576    
  24460000   291.14529     -3707.6895      1226.9108      122.7677       5.4654973    
  24465000   296.05625     -3719.8096      1194.0143      121.66699     -8.5411256    
  24470000   299.28545     -3687.8995      1214.5093      202.94895     -3.5579548    
  24475000   298.11834     -3710.641       1223.5965      178.858       -20.798587    
  24480000   301.52319     -3689.2975      1199.3003      206.35282     -5.7632275    
  24485000   295.40704     -3689.6316      1219.1237      171.14891      7.7096637    
  24490000   309.32137     -3724.7313      1219.9746      261.3281       26.644347    
  24495000   298.63168     -3735.0845      1205.7516      141.16006     -1.4493957    
  24500000   303.87505     -3737.7641      1247.6992      227.31648      21.322626    
  24505000   298.45122     -3710.9416      1224.8219      182.75949      17.141216    
  24510000   304.29474     -3708.1618      1236.6305      249.60318     -30.522549    
  24515000   306.45978     -3723.272       1213.4452      230.66835      14.112968    
  24520000   304.22541     -3709.6026      1216.1425      227.05434      13.630338    
  24525000   308.19894     -3701.4016      1266.2473      320.89323      1.230631     
  24530000   315.84886     -3693.9283      1197.0276      327.5557      -5.1744207    
  24535000   298.75159     -3682.4423      1237.1417      226.26468      21.920985    
  24540000   301.18064     -3673.831       1226.4789      245.93469     -1.68917      
  24545000   297.08294     -3719.5902      1179.941       116.99416     -12.753242    
  24550000   297.82671     -3717.4327      1225.931       171.79288      18.095307    
  24555000   301.02027     -3666.8057      1240.408       265.45512     -8.1181987    
  24560000   302.76547     -3720.7982      1266.0946      252.7555       23.402103    
  24565000   299.56681     -3698.9968      1228.8156      208.67402     -14.232607    
  24570000   294.55197     -3708.3731      1221.8858      147.52313     -25.890529    
  24575000   302.25181     -3698.0842      1215.332       220.11341      15.38405     
  24580000   300.81451     -3688.184       1183.6261      185.45491      10.464685    
  24585000   293.99552     -3698.804       1194.0128      124.24326      22.850467    
  24590000   299.88839     -3697.4697      1217.0701      201.33143      14.330321    
  24595000   297.90975     -3675.8671      1263.8368      252.00675     -14.228021    
  24600000   299.28669     -3717.12        1222.7865      182.01683      6.5095323    
  24605000   296.80849     -3716.8166      1215.7916      153.16419      16.347344    
  24610000   307.53795     -3709.0651      1185.3109      226.38242      15.786159    
  24615000   295.87306     -3730.8937      1198.3952      113.32561     -16.645608    
  24620000   304.19098     -3712.037       1239.5477      247.71731      12.322593    
  24625000   304.63553     -3704.1504      1155.0602      175.09177     -0.93045591   
  24630000   301.03404     -3713.3717      1226.4542      205.0584       1.9266244    
  24635000   299.31883     -3714.1813      1238.0637      200.52008      15.774221    
  24640000   307.29222     -3720.4035      1204.7625      232.29818      25.757937    
  24645000   302.75898     -3717.1696      1243.714       233.94538      1.4580745    
  24650000   300.37548     -3726.9993      1240.0407      199.12818      24.847018    
  24655000   301.42865     -3740.9608      1194.428       148.97189     -3.4029237    
  24660000   297.7882      -3732.3667      1217.175       147.75842      28.222727    
  24665000   298.61432     -3713.7012      1206.148       162.78448     -3.8081519    
  24670000   297.9692      -3739.0367      1204.6315      130.16354      35.110022    
  24675000   297.19956     -3739.4921      1194.499       112.69314     -31.237321    
  24680000   299.34817     -3722.3567      1242.4181      196.96159     -28.553345    
  24685000   298.87523     -3743.9255      1195.2787      124.02405      28.479907    
  24690000   299.6879      -3714.3094      1195.8602      161.48883      26.430546    
  24695000   298.82437     -3757.5521      1182.176       96.839944      10.282167    
  24700000   304.27241     -3709.4896      1217.3022      228.74737      15.788047    
  24705000   304.88        -3721.4009      1209.8657      214.83291     -6.9708533    
  24710000   302.86869     -3763.7534      1232.5043      177.13304      30.480622    
  24715000   301.78226     -3753.7241      1198.6853      143.62805     -26.902143    
  24720000   299.19975     -3743.7566      1233.3863      165.20255      13.696076    
  24725000   292.90584     -3763.1789      1207.9138      64.024945     -8.9844412    
  24730000   302.61083     -3762.2031      1221.715       165.58814     -1.9897137    
  24735000   294.42601     -3744.2792      1227.7252      116.32996     -13.467924    
  24740000   296.97788     -3756.9805      1180.2173      78.940705      29.740694    
  24745000   305.08548     -3739.803       1167.3344      155.73691     -5.4800698    
  24750000   298.93607     -3762.0464      1236.4618      147.6303      -8.3374134    
  24755000   299.59489     -3754.7903      1192.5405      116.85662      6.3746575    
  24760000   301.74387     -3736.8553      1223.1924      184.66066     -5.1837271    
  24765000   295.20983     -3754.0387      1209.5012      95.355825     -3.179321     
  24770000   301.34839     -3742.0505      1223.1165      175.85289      4.6682886    
  24775000   297.47228     -3748.8154      1240.9603      152.26991     -2.9798841    
  24780000   295.9286      -3727.7232      1218.3823      136.97992      0.84453131   
  24785000   303.16636     -3747.765       1183.6154      146.89438      33.014455    
  24790000   298.58578     -3768.7313      1214.035       115.38614      3.5629457    
  24795000   293.15262     -3757.169       1235.4121      99.739942     -19.299578    
  24800000   300.09146     -3757.4404      1182.8578      108.96429      20.999196    
  24805000   306.09991     -3761.2067      1242.5973      218.66763      7.4891807    
  24810000   303.08014     -3746.2185      1162.8358      126.89034     -14.967685    
  24815000   296.72581     -3721.333       1268.3066      200.42345     -20.28548     
  24820000   286.39591     -3736.1785      1195.4219      20.318834      8.6523828    
  24825000   301.57252     -3753.986       1214.9527      157.75797     -2.138374     
  24830000   299.4165      -3755.1212      1196.5787      118.96862     -8.816236     
  24835000   291.76699     -3745.874       1191.6157      54.847618      16.342394    
  24840000   296.73985     -3771.77        1173.6716      55.47697      -10.115155    
  24845000   305.77836     -3779.7359      1196.0192      150.68492     -2.2729511    
  24850000   299.71993     -3774.2635      1215.31        121.27102      10.325276    
  24855000   299.5039      -3739.2382      1210.6997      149.75416      13.808204    
  24860000   300.62453     -3751.8804      1196.7216      133.15503     -7.8419604    
  24865000   303.25716     -3770.8523      1189.7025      130.70613      31.328302    
  24870000   304.67298     -3720.6228      1224.9312      228.82526      14.368537    
  24875000   309.27723     -3766.7163      1236.5318      235.50556     -11.446622    
  24880000   296.67026     -3762.7241      1210.4959      100.72494     -6.928777     
  24885000   300.91062     -3797.6335      1200.0747      93.313422     -8.5289778    
  24890000   299.30196     -3770.1047      1187.3493      93.731493      6.0964757    
  24895000   284.29402     -3749.277       1217.3712      10.373649     -9.662131     
  24900000   306.06952     -3763.9961      1234.7699      207.77909      4.8754728    
  24905000   297.09874     -3751.1481      1180.719       86.355616     -2.9774649    
  24910000   293.58804     -3764.8259      1279.2948      139.8595       4.6210467    
  24915000   300.18166     -3784.2659      1212.2185      112.30614      10.358294    
  24920000   295.8934      -3785.1126      1266.0907      126.98409      9.7671675    
  24925000   297.7552      -3809.2673      1212.4833      65.870986      1.9757286    
  24930000   305.89435     -3785.3701      1201.4201      151.48877     -0.8902071    
  24935000   300.97666     -3812.7417      1195.8935      74.614617     -5.3477651    
  24940000   298.86611     -3762.3941      1195.377       105.57216      12.668127    
  24945000   297.62017     -3748.4245      1156.5298      69.552902     -18.365583    
  24950000   301.56008     -3768.2996      1196.7757      125.15598      7.8095415    
  24955000   294.78854     -3760.7108      1231.9876      107.4027       11.414479    
  24960000   298.55258     -3730.1229      1143.9966      83.659327     -29.54624     
  24965000   297.84472     -3771.2129      1195.8473      88.090016     -5.9761364    
  24970000   294.47846     -3749.8681      1120.6016      4.0865629      24.029194    
  24975000   297.27361     -3755.8903      1204.2934      106.75162      0.83067145   
  24980000   297.26878     -3770.8012      1191.184       78.688131      1.535296     
  24985000   305.53799     -3769.0496      1209.0716      172.2742      -17.109015    
  24990000   296.58648     -3795.0466      1173.7471      30.904443     -1.6901333    
  24995000   293.38656     -3758.4182      1206.0332      71.203823      5.0952688    
  25000000   302.93622     -3743.3172      1138.7238      104.39267     -0.89969017   
  25005000   299.01114     -3767.092       1187.3395      94.133848     -23.523138    
  25010000   308.99211     -3778.4898      1270.3209      254.97147     -16.532568    
Loop time of 14213.6 on 64 procs for 25000000 steps with 3001 atoms

Performance: 4559.011 ns/day, 0.005 hours/ns, 1758.878 timesteps/s
99.6% CPU use with 64 MPI tasks x 1 OpenMP threads

MPI task timing breakdown:
Section |  min time  |  avg time  |  max time  |%varavg| %total
---------------------------------------------------------------
Pair    | 34.773     | 338.14     | 2421.9     |4021.1 |  2.38
Bond    | 28.875     | 54.333     | 221.86     | 841.6 |  0.38
Neigh   | 3897.3     | 3988.5     | 4202.5     | 112.8 | 28.06
Comm    | 6918       | 9568.9     | 9999.4     | 926.8 | 67.32
Output  | 36.369     | 36.489     | 36.571     |   1.0 |  0.26
Modify  | 47.459     | 87.868     | 336.64     | 993.2 |  0.62
Other   |            | 139.3      |            |       |  0.98

Nlocal:        46.8906 ave         204 max           5 min
Histogram: 24 31 1 0 0 0 0 0 1 7
Nghost:        3469.89 ave        3817 max        3026 min
Histogram: 8 0 0 0 22 2 12 12 0 8
Neighs:        733.516 ave        5536 max          17 min
Histogram: 56 0 0 0 0 0 0 1 3 4
FullNghs:      1467.03 ave       11411 max          20 min
Histogram: 56 0 0 0 0 0 0 1 4 3

Total # of neighbors = 93890
Ave neighs/atom = 31.286238
Ave special neighs/atom = 3.5988004
Neighbor list builds = 2500000
Dangerous builds = 2499990
Total wall time: 3:56:57
