LAMMPS (23 Jun 2022)
OMP_NUM_THREADS environment is not set. Defaulting to 1 thread. (src/src/comm.cpp:98)
  using 1 OpenMP thread(s) per MPI task

variable 		movie equal 25000
variable		output equal 5000
variable		solvent equal 0.2  #0.2 is a good solvent, 0.5 is a bad solvent, 1.0 is no solvent/vacuum
variable		np_rad equal 25.0  #NP radius in Angstrom (= 0.1 nm)
variable		coor_del equal 3.0  # in order for a ligand to be considered to be bound, it must be within this radius of the edge of the NP VDW
variable 		s2_cutoff equal 35
variable 		E_bind equal 4.0  #ligand-NP binding energy in kcal/mol
variable		Lbox equal 150.0   #edge length of cubic simulation box
variable 		Nlig equal 600	   #number of ligands
variable		seed equal 314159
variable		trajsteps equal 25000000	 #number of timesteps (length of simulation)
restart			2500000 save

units 			real
atom_style		molecular

region 			box block 0 ${Lbox} 0 ${Lbox} 0 ${Lbox} units box
region 			box block 0 150 0 ${Lbox} 0 ${Lbox} units box
region 			box block 0 150 0 150 0 ${Lbox} units box
region 			box block 0 150 0 150 0 150 units box
create_box		4 box bond/types 2 angle/types 1 extra/bond/per/atom 2 extra/angle/per/atom 1 extra/special/per/atom 3
Created orthogonal box = (0 0 0) to (150 150 150)
  4 by 4 by 4 MPI processor grid

molecule		lig ligand.mol
Read molecule template lig:
  1 molecules
  0 fragments
  5 atoms with max type 2
  4 bonds with max type 1
  3 angles with max type 1
  0 dihedrals with max type 0
  0 impropers with max type 0
#molecule		hex hexane.mol

mass            1 60 #C1, MARTINI bead representing a 4-carbon segment of an alkyl chain
mass            2 60 #N6d, MARTINI bead representing a NH2 amino group + a 2-carbon segment of an alkyl chain
mass            3 43 #SC2, MARTINI bead representing a 3-carbon segment of an alkyl chain. NOT USED IN THIS SIMULATION!
mass            4 500 #a spherical nanoparticle. the mass is not realistic.

# put NP in center
create_atoms	4 single $(v_Lbox/2) $(v_Lbox/2) $(v_Lbox/2) units box
create_atoms	4 single 75 $(v_Lbox/2) $(v_Lbox/2) units box
create_atoms	4 single 75 75 $(v_Lbox/2) units box
create_atoms	4 single 75 75 75 units box
Created 1 atoms
  using box units in orthogonal box = (0 0 0) to (150 150 150)
  create_atoms CPU = 0.000 seconds

# define region as everything outside a spherical center in sim. box. ASSUME SIM. BOX IS IMPLIED? doc seems to...
region			box_with_hole sphere $(v_Lbox/2) $(v_Lbox/2) $(v_Lbox/2) $(v_np_rad+5.0) side out units box
region			box_with_hole sphere 75 $(v_Lbox/2) $(v_Lbox/2) $(v_np_rad+5.0) side out units box
region			box_with_hole sphere 75 75 $(v_Lbox/2) $(v_np_rad+5.0) side out units box
region			box_with_hole sphere 75 75 75 $(v_np_rad+5.0) side out units box
region			box_with_hole sphere 75 75 75 30 side out units box

create_atoms	0 random ${Nlig} ${seed} box_with_hole mol lig 12345
create_atoms	0 random 600 ${seed} box_with_hole mol lig 12345
create_atoms	0 random 600 314159 box_with_hole mol lig 12345
Created 3000 atoms
  using lattice units in orthogonal box = (0 0 0) to (150 150 150)
  create_atoms CPU = 0.004 seconds

pair_style		lj/expand 12.0
pair_modify		shift yes

#pair_coeff		1 1 energy sigma delta cut

#ligand-ligand interactions
pair_coeff		1 1 $(v_solvent*0.810) 4.7 0 12
pair_coeff		1 1 0.16200000000000003286 4.7 0 12
pair_coeff		2 2 $(v_solvent*0.841) 4.7 0 12
pair_coeff		2 2 0.16820000000000001616 4.7 0 12
pair_coeff		1 2 $(v_solvent*0.667) 4.7 0 12
pair_coeff		1 2 0.13340000000000001856 4.7 0 12

#solvent-ligand interactions, NOT USED IN THIS SIMULATION
pair_coeff		3 3 0.562 4.1 0 12
pair_coeff		1 3 0.755 4.3 0 12
pair_coeff		2 3 0.554 4.3 0 12

#interactions involving the NP
pair_coeff  	1 4 0.100 4.0 $(v_np_rad-2.5) 12
pair_coeff  	1 4 0.100 4.0 22.5 12
pair_coeff  	3 4 0.100 4.0 $(v_np_rad-2.5) 12
pair_coeff  	3 4 0.100 4.0 22.5 12
pair_coeff		4 4 0.100 4.0 $(2*v_np_rad-4.0) 12
pair_coeff		4 4 0.100 4.0 46 12
pair_coeff   	2 4 ${E_bind} 4.0 $(v_np_rad-2.5) 12 #this interaction controls the binding strength of ligands to the NP core
pair_coeff   	2 4 4 4.0 $(v_np_rad-2.5) 12 
pair_coeff   	2 4 4 4.0 22.5 12 

bond_style  	harmonic
bond_coeff  	1 4.54 4.7 	#C1-C1
bond_coeff		2 5.98 4.05 #SC2-SC2, hexane

angle_style		cosine/squared
angle_coeff		1 4.1826 180

special_bonds 	lj 0 1 1
Finding 1-2 1-3 1-4 neighbors ...
  special bond factors lj:    0        1        1       
  special bond factors coul:  0        0        0       
     2 = max # of 1-2 neighbors
     2 = max # of 1-3 neighbors
     2 = max # of 1-4 neighbors
     7 = max # of special neighbors
  special bonds CPU = 0.001 seconds

group			ligands type 1 2
3000 atoms in group ligands


#EQULILIBRATION: getting rid of overlaps between particles using fix nve/limit ***************

fix 			1 ligands nve/limit 0.1
fix 			2 ligands langevin 300 300 1000 12345 #langevin thermostat

timestep		30

thermo 			${output}
thermo 			5000

dump      		1 all custom 5000 pos.lammpstrj type x y z
dump_modify		1 sort id

run				10000
Generated 0 of 6 mixed pair_coeff terms from geometric mixing rule
Neighbor list info ...
  update every 1 steps, delay 10 steps, check yes
  max neighbors/atom: 2000, page size: 100000
  master list distance cutoff = 60
  ghost atom cutoff = 60
  binsize = 30, bins = 5 5 5
  1 neighbor lists, perpetual/occasional/extra = 1 0 0
  (1) pair lj/expand, perpetual
      attributes: half, newton on
      pair build: half/bin/newton
      stencil: half/bin/3d
      bin: standard
Per MPI rank memory allocation (min/avg/max) = 8.076 | 8.105 | 8.367 Mbytes
   Step          Temp          E_pair         E_mol          TotEng         Press     
         0   0              9.8623636e+13  4.0068356e-25  9.8623636e+13  8.0147754e+12
      5000   143.36141     -372.42867      657.08426      1566.655       3.4040381    
     10000   141.87909     -447.6175       618.95925      1440.0856     -1.3120949    
Loop time of 3.89969 on 64 procs for 10000 steps with 3001 atoms

Performance: 6646.688 ns/day, 0.004 hours/ns, 2564.309 timesteps/s
99.5% CPU use with 64 MPI tasks x 1 OpenMP threads

MPI task timing breakdown:
Section |  min time  |  avg time  |  max time  |%varavg| %total
---------------------------------------------------------------
Pair    | 0.011596   | 0.050872   | 0.10746    |  10.3 |  1.30
Bond    | 0.0077497  | 0.020925   | 0.033116   |   3.8 |  0.54
Neigh   | 0.60793    | 0.61412    | 0.62412    |   0.5 | 15.75
Comm    | 3.0483     | 3.132      | 3.1944     |   2.1 | 80.31
Output  | 0.001207   | 0.0012226  | 0.001236   |   0.0 |  0.03
Modify  | 0.015654   | 0.040235   | 0.06229    |   5.1 |  1.03
Other   |            | 0.0403     |            |       |  1.03

Nlocal:        46.8906 ave          81 max          20 min
Histogram: 6 8 5 7 13 5 10 8 1 1
Nghost:        3404.48 ave        3526 max        3312 min
Histogram: 4 4 9 12 10 11 8 4 1 1
Neighs:        321.453 ave         736 max          56 min
Histogram: 6 8 13 7 8 10 4 5 2 1

Total # of neighbors = 20573
Ave neighs/atom = 6.8553815
Ave special neighs/atom = 3.5988004
Neighbor list builds = 909
Dangerous builds = 0

#PRODUCTION RUN ******************************************************************************

unfix 			1
fix 			1 ligands nve
undump			1
# define spherical region in center of sim. box
# region			center sphere $(v_Lbox/2) $(v_Lbox/2) $(v_Lbox/2) $(v_np_rad+5.0) units box
# delete atoms in the region
# delete_atoms	region center mol yes
# put NP in the hole
# create_atoms	4 single $(v_Lbox/2) $(v_Lbox/2) $(v_Lbox/2) units box

dump      		2 all custom ${movie} pos2.lammpstrj type x y z
dump      		2 all custom 25000 pos2.lammpstrj type x y z
dump_modify		2 sort id
dump 			2. all custom ${output} pos2_long.lammpstrj type x y z
dump 			2. all custom 5000 pos2_long.lammpstrj type x y z
dump_modify 	2. sort id

group           nps     type 4
1 atoms in group nps
group           amines  type 2
600 atoms in group amines

# count coordination number of NP
compute coords nps coord/atom cutoff $(v_np_rad + v_coor_del) 2
compute coords nps coord/atom cutoff 28 2
dump 3 nps custom ${output} coords.dmp c_coords
dump 3 nps custom 5000 coords.dmp c_coords
# equivalent calculation below
# compute coords nps coord/atom cutoff 28 group amines
# dump 4 nps custom ${output} coords2.dmp type c_coords2

# seond shell
compute coords2 nps coord/atom cutoff ${s2_cutoff} 2
compute coords2 nps coord/atom cutoff 35 2
dump 4 nps custom ${output} coords2.dmp c_coords2
dump 4 nps custom 5000 coords2.dmp c_coords2



run				${trajsteps}
run				25000000
Generated 0 of 6 mixed pair_coeff terms from geometric mixing rule
Neighbor list info ...
  update every 1 steps, delay 10 steps, check yes
  max neighbors/atom: 2000, page size: 100000
  master list distance cutoff = 60
  ghost atom cutoff = 60
  binsize = 30, bins = 5 5 5
  3 neighbor lists, perpetual/occasional/extra = 1 2 0
  (1) pair lj/expand, perpetual
      attributes: half, newton on
      pair build: half/bin/newton
      stencil: half/bin/3d
      bin: standard
  (2) compute coord/atom, occasional
      attributes: full, newton on
      pair build: full/bin
      stencil: full/bin/3d
      bin: standard
  (3) compute coord/atom, occasional
      attributes: full, newton on
      pair build: full/bin
      stencil: full/bin/3d
      bin: standard
Per MPI rank memory allocation (min/avg/max) = 10.11 | 10.24 | 12.12 Mbytes
   Step          Temp          E_pair         E_mol          TotEng         Press     
     10000   141.87909     -447.6175       618.95925      1440.0856     -1.3120949    
     15000   295.20939     -382.12082      1276.9602      3534.7288      13.688248    
     20000   299.17902     -401.03568      1218.6967      3493.0485      5.6498079    
     25000   303.73087     -461.19865      1282.6713      3537.5647      8.9326081    
     30000   296.51506     -434.50671      1257.2821      3474.3406     -2.0194829    
     35000   298.07207     -488.56924      1289.8172      3466.7366      3.3708859    
     40000   295.85163     -503.70657      1240.5129      3382.4388      5.3744481    
     45000   301.20749     -510.25705      1240.6494      3423.9193      1.7532202    
     50000   293.77869     -522.14334      1329.9409      3434.893       7.5403706    
     55000   291.45785     -555.37011      1274.9655      3325.9369      6.2180447    
     60000   299.77548     -576.79022      1241.214       3345.1451      1.1032909    
     65000   292.62141     -586.64753      1228.4407      3258.5396     -6.8689055    
     70000   298.21321     -593.67723      1240.9023      3313.9759     -2.9039999    
     75000   305.65913     -557.67054      1293.3472      3469.0121     -0.86761437   
     80000   298.19542     -566.73902      1281.9568      3381.8095      5.8833891    
     85000   302.91689     -560.19401      1256.8437      3405.4628      8.0714128    
     90000   299.04032     -520.4981       1317.3753      3471.0244      3.4872853    
     95000   290.53583     -556.5972       1283.8297      3325.3289      7.8074337    
    100000   298.90982     -611.96523      1314.0079      3375.0229      1.4110218    
    105000   297.30533     -612.69833      1258.5556      3304.4894     -2.1886625    
    110000   303.09336     -590.50682      1223.5602      3343.4446      7.7516323    
    115000   300.15192     -584.10765      1251.9513      3351.9312      16.109004    
    120000   294.6647      -558.68085      1262.9989      3339.3365      11.162255    
    125000   301.74093     -560.42133      1313.5445      3451.4203      10.986185    
    130000   293.38008     -586.26812      1260.7312      3297.9939      0.96116881   
    135000   301.25428     -562.89129      1272.6174      3403.6715      11.473463    
    140000   303.41642     -567.33608      1277.0857      3423.0297      5.8326831    
    145000   299.4227      -538.32194      1228.132       3367.3767      12.273649    
    150000   296.15858     -568.33703      1248.4121      3328.4525      6.1262361    
    155000   298.36812     -580.26493      1282.0693      3369.9405     -2.1537425    
    160000   298.63874     -593.89448      1298.5387      3375.2003      9.4129743    
    165000   305.63151     -598.60957      1278.3865      3412.8653      5.7773       
    170000   292.13303     -604.28384      1277.517       3285.6123      7.5332278    
    175000   293.9931      -576.64944      1287.0849      3339.4482      9.2373131    
    180000   297.17626     -565.42852      1297.4462      3389.4957      3.2238965    
    185000   305.57195     -584.92287      1263.1691      3410.802       16.342872    
    190000   302.22351     -563.44953      1272.01        3411.1731      7.7271003    
    195000   305.92802     -593.30702      1344.8964      3487.3292      10.295186    
    200000   294.54735     -620.89914      1255.045       3268.115       4.4480004    
    205000   302.15851     -615.4126       1310.2952      3396.914       1.1575796    
    210000   306.15736     -563.97125      1278.299       3452.1185     -4.5847016    
    215000   289.3666      -545.16543      1234.6409      3277.1161      16.61437     
    220000   301.42962     -599.19061      1246.6528      3342.9755      21.923098    
    225000   293.93254     -579.97024      1239.3879      3287.8889      2.345261     
    230000   304.09674     -591.55305      1235.9134      3363.7241      2.7025435    
    235000   292.21834     -572.58204      1331.0073      3371.5673      2.2667295    
    240000   301.4093      -549.44935      1278.0491      3423.9314      1.9123089    
    245000   294.04251     -577.22213      1298.6185      3350.851       4.2212596    
    250000   301.92027     -546.12423      1233.5559      3387.3326      15.114342    
    255000   300.48858     -577.00879      1240.6665      3350.7559      4.6804528    
    260000   301.22806     -550.10584      1258.3698      3401.9748     -6.4034229    
    265000   301.09232     -573.85436      1322.3839      3441.0265      18.465812    
    270000   300.51183     -540.46275      1266.8229      3413.6662      8.3550906    
    275000   301.44292     -575.70473      1295.6719      3415.5994      10.514529    
    280000   295.87036     -560.42746      1303.1582      3388.5309      1.2289504    
    285000   299.94669     -553.48601      1274.0777      3402.844       0.68722716   
    290000   291.33372     -572.82902      1269.9638      3302.3662      7.5205747    
    295000   307.02432     -566.92568      1298.0058      3476.6236      5.6974399    
    300000   303.93051     -603.4697       1279.4221      3393.8298      5.4361406    
    305000   305.42252     -552.67165      1224.2149      3402.7628      7.0918226    
    310000   302.83761     -595.15192      1273.0327      3385.985      -8.2553703    
    315000   305.4906      -572.85812      1220.746       3379.7163      2.3774687    
    320000   304.3056      -600.08647      1265.7686      3386.9137      10.014429    
    325000   297.76506     -545.0993       1288.4985      3406.1424      4.8648491    
    330000   302.18748     -557.41186      1269.5031      3414.3816      7.7688655    
    335000   293.35195     -581.03524      1273.1812      3315.4253      8.1725623    
    340000   295.76905     -598.90633      1263.075       3309.0627      0.2629687    
    345000   306.09728     -587.9271       1302.7963      3452.1228      2.6909337    
    350000   303.93872     -572.72146      1253.9543      3399.1837      2.5147846    
    355000   301.24722     -573.62409      1276.4264      3396.6845     -1.8800603    
    360000   296.30579     -589.56125      1289.2668      3349.3994      3.3908874    
    365000   298.53595     -561.28474      1277.6385      3385.9907      2.0330305    
    370000   304.29839     -548.95586      1313.5026      3485.7139      7.2212215    
    375000   300.7935      -553.41037      1251.5145      3387.929      -2.9904363    
    380000   303.4508      -599.64867      1284.4201      3398.359       15.184385    
    385000   298.52812     -570.42817      1267.2553      3366.394      -3.9794835    
    390000   304.03282     -557.83278      1209.9688      3370.9282      11.453141    
    395000   304.7637      -585.43691      1293.5603      3433.4515      5.277475     
    400000   302.6353      -599.28647      1298.7517      3405.7603      3.9489915    
    405000   301.07688     -619.79883      1297.6025      3370.1627      9.3232795    
    410000   301.71451     -579.6422       1312.8099      3431.2286     -4.1957391    
    415000   294.05637     -651.9522       1232.869       3210.4953     -0.43654283   
    420000   301.62404     -629.12548      1273.4806      3341.607       13.638386    
    425000   302.93739     -613.4415       1290.3832      3385.9381      10.343888    
    430000   303.72701     -627.9741       1262.4567      3350.5402      10.005037    
    435000   301.06156     -601.47264      1290.2918      3381.0411      4.5265327    
    440000   305.15984     -537.17602      1251.9675      3443.662       7.0050257    
    445000   298.56915     -546.56553      1253.7575      3377.1257      5.246524     
    450000   301.65766     -569.37286      1288.9127      3417.0923     -1.8482364    
    455000   306.41355     -593.48453      1274.4612      3421.0584      9.4481785    
    460000   303.05623     -586.42652      1263.6165      3387.2491      9.5752724    
    465000   303.65033     -580.33918      1285.1378      3420.1705     -0.069005879  
    470000   299.14503     -600.56593      1239.663       3314.1807      12.38315     
    475000   298.76628     -582.51544      1246.7322      3335.9133      3.9350576    
    480000   303.04508     -578.55563      1317.2407      3448.6446      10.399371    
    485000   299.32538     -625.25626      1282.7948      3334.2348      6.9994476    
    490000   299.5582      -569.2769       1249.4147      3358.9161      7.8232727    
    495000   301.61304     -545.73116      1304.3302      3455.7526      3.1271178    
    500000   291.70322     -554.49874      1300.0404      3354.0773      12.186033    
    505000   298.80859     -535.77187      1292.3514      3428.6544      7.5027522    
    510000   298.61266     -539.53478      1236.6371      3367.4251      1.1061119    
    515000   297.12325     -549.32985      1323.8196      3431.4936      13.094767    
    520000   309.92501     -543.31581      1275.3965      3503.5634      13.30681     
    525000   309.16051     -563.56894      1283.8461      3484.9235      5.8206532    
    530000   300.62982     -557.94789      1217.6565      3348.0698      6.5241812    
    535000   303.66452     -589.07131      1309.2413      3435.6687      1.1943038    
    540000   299.23077     -587.93978      1293.6074      3381.5179     -3.6010612    
    545000   307.06144     -529.1717       1235.7723      3452.4761      8.0969459    
    550000   297.7087      -523.21209      1253.1138      3392.141       12.076028    
    555000   298.91329     -575.39818      1302.0417      3399.6547      10.297464    
    560000   308.73677     -582.17344      1294.2697      3472.9532      14.638527    
    565000   300.95282     -590.14355      1236.1615      3337.2675      16.156537    
    570000   305.51625     -561.78192      1258.9435      3429.2193      4.2572801    
    575000   298.89526     -549.8549       1234.2595      3357.2546      2.0165869    
    580000   294.17018     -527.90907      1230.9009      3333.5882      17.700418    
    585000   296.43058     -564.27049      1286.251       3372.7903      5.596034     
    590000   293.76246     -549.44952      1330.589       3408.0898      3.907734     
    595000   296.49118     -544.92922      1258.4068      3364.8292      15.066665    
    600000   302.36411     -564.76394      1275.6142      3414.7202      11.409932    
    605000   301.60409     -554.56668      1276.1573      3418.6641      4.5261709    
    610000   299.88374     -551.50122      1253.0833      3383.2715      7.5232093    
    615000   300.8808      -561.63956      1253.9917      3382.9577      6.9351298    
    620000   286.49862     -532.42214      1302.0944      3331.6662      3.6946278    
    625000   294.31593     -566.18957      1284.5248      3350.2349     -9.9202201    
    630000   297.56054     -574.34393      1310.4417      3397.0122      20.011947    
    635000   306.33744     -544.98503      1259.1686      3453.5847      3.8645488    
    640000   289.07034     -586.28485      1320.049       3318.7554     -0.93895127   
    645000   295.64451     -606.46251      1270.8339      3308.1519      13.25907     
    650000   300.37542     -578.44371      1287.4199      3395.0623      6.1539607    
    655000   296.5717      -546.3003       1239.2923      3345.0638     -6.9442161    
    660000   309.9556      -581.52992      1276.5997      3466.8261     -1.5481739    
    665000   300.4687      -572.48457      1250.7217      3365.1575      1.7166557    
    670000   300.66999     -601.81422      1266.5193      3353.4255     -1.0234272    
    675000   292.49262     -580.94551      1283.0058      3317.6551      3.2928428    
    680000   296.8306      -567.5932       1289.1016      3375.8953      8.6823158    
    685000   288.54938     -571.88922      1259.3185      3267.762       8.5001861    
    690000   306.77927     -555.00172      1234.3164      3422.6669      4.7526698    
    695000   300.1925      -604.11521      1252.9919      3333.3271      12.382712    
    700000   299.64163     -587.86941      1276.6107      3368.2657      13.634854    
    705000   297.463       -581.9021       1254.845       3332.985       13.475359    
    710000   299.07026     -573.85164      1284.0744      3384.6377     -3.5890342    
    715000   301.47445     -575.12171      1280.3261      3401.1187     -0.61592988   
    720000   300.38051     -588.63465      1249.4484      3346.9455      3.9658511    
    725000   297.6869      -604.23699      1249.2696      3307.0769      0.14614732   
    730000   300.1147      -582.52844      1259.7165      3360.9428      11.376438    
    735000   295.47509     -618.52155      1278.7365      3302.4803      9.2917787    
    740000   303.8114      -586.48223      1274.0297      3404.3597      2.1071457    
    745000   304.65944     -616.95513      1309.2298      3416.6704      2.3429535    
    750000   294.32285     -587.29759      1266.2328      3310.8967      11.346593    
    755000   307.51066     -597.59986      1318.6149      3470.9077      5.1582791    
    760000   302.02015     -581.1691       1297.6866      3417.3116     -2.6257737    
    765000   308.20657     -641.02298      1297.1132      3412.2059      0.26852331   
    770000   296.28472     -636.3154       1208.2713      3221.4613      17.918832    
    775000   303.86189     -635.73614      1273.4093      3354.9369      12.194238    
    780000   294.89053     -619.09638      1296.1365      3314.0781      2.9622421    
    785000   296.1622      -632.76625      1235.9613      3251.6048     -6.5062006    
    790000   301.76323     -633.50579      1228.724       3293.7148      9.257689     
    795000   296.32725     -642.40402      1290.7125      3298.1943      9.3805175    
    800000   298.70386     -607.10261      1289.8074      3353.8432      13.925093    
    805000   299.41213     -578.52391      1266.8057      3365.7538      6.7163426    
    810000   305.14963     -571.15333      1318.9051      3476.531       5.6725646    
    815000   306.35557     -584.08404      1334.5023      3489.9815      12.584049    
    820000   301.0964      -561.95495      1264.8733      3395.4518      17.691326    
    825000   298.59504     -567.5562       1262.3192      3364.9283      14.918073    
    830000   295.3437      -564.19657      1264.9284      3341.8223      4.0957689    
    835000   311.32406     -543.47776      1313.7871      3554.303       3.131127     
    840000   296.85068     -583.49763      1249.2742      3320.3431      19.770356    
    845000   299.16554     -616.74         1304.3821      3362.909       1.5147177    
    850000   301.16598     -605.19349      1274.064       3362.0262      0.36675181   
    855000   301.27909     -576.29978      1309.0809      3426.9484      11.690819    
    860000   298.25718     -578.3555       1262.6179      3351.4064      7.1184474    
    865000   299.92158     -550.98523      1351.3808      3482.4233     -6.8630446    
    870000   303.17209     -562.26557      1263.4586      3412.2883      12.752149    
    875000   300.90735     -567.18871      1294.819       3418.4733      7.9259363    
    880000   295.48758     -562.43733      1266.4178      3346.3575     -3.8898819    
    885000   295.64325     -554.65948      1275.0445      3364.1542      15.220281    
    890000   301.9998      -560.95195      1275.85        3415.5102      5.5200248    
    895000   303.64916     -550.1096       1241.3834      3406.6351      0.96649099   
    900000   295.77149     -540.46401      1287.3469      3391.7987      0.91705507   
    905000   302.94906     -542.92286      1276.6226      3442.8006      12.482349    
    910000   300.04993     -526.58547      1268.6099      3425.1999      11.383451    
    915000   301.3848      -550.82334      1292.0613      3436.3505      13.478903    
    920000   301.25975     -552.14264      1284.9718      3426.8235      3.7649163    
    925000   295.36664     -561.46965      1220.1065      3299.9324      0.88365734   
    930000   298.41008     -558.74779      1281.6101      3391.3736      6.9844358    
    935000   307.94624     -535.29175      1276.4544      3494.9504     -2.5358984    
    940000   298.40962     -559.39626      1273.3837      3382.4947      8.6638968    
    945000   308.88325     -583.28244      1322.9347      3501.8192     -2.1207904    
    950000   299.92738     -570.66278      1301.1371      3412.554       2.0254409    
    955000   301.58728     -580.3574       1328.8846      3445.4504      3.7955213    
    960000   304.02679     -617.78386      1303.0762      3404.0306      10.538246    
    965000   294.28786     -612.52905      1250.4204      3269.5401      0.11273213   
    970000   299.80303     -643.45324      1242.7228      3280.2373      11.640743    
    975000   306.52613     -596.0585       1247.5705      3392.6005      5.0068989    
    980000   295.88016     -640.05964      1311.5231      3317.3511      1.9609992    
    985000   301.17897     -611.47023      1263.7149      3345.5165      12.427268    
    990000   294.93909     -599.10479      1277.0183      3315.3858      15.672461    
    995000   291.7208      -589.36205      1223.5692      3242.9001      10.441359    
   1000000   303.86157     -571.71854      1262.5966      3408.1389      12.956852    
   1005000   298.71057     -557.92011      1268.9263      3382.2046      4.880345     
   1010000   307.34187     -550.33308      1259.2308      3457.2809      4.4916391    
   1015000   303.52181     -560.52851      1238.6586      3392.3527      6.6433743    
   1020000   299.59134     -579.85857      1288.0492      3387.2653      2.2986375    
   1025000   291.47962     -560.01192      1312.3059      3358.8301      6.6832959    
   1030000   295.12201     -578.54106      1283.6553      3344.2223      13.824699    
   1035000   299.87289     -631.15599      1241.284       3291.7204      16.875958    
   1040000   308.81573     -612.36647      1251.2202      3400.4168      12.389688    
   1045000   297.23722     -591.17206      1234.6388      3301.4898      7.236937     
   1050000   299.81735     -576.74454      1277.9089      3382.26        5.6381628    
   1055000   302.01927     -553.30104      1321.0902      3468.5754      6.9767736    
   1060000   293.15327     -569.41357      1267.4171      3319.5061      14.235868    
   1065000   301.50254     -552.84896      1211.9715      3355.2879      2.8603226    
   1070000   303.94329     -588.31505      1253.641       3383.3176      12.858123    
   1075000   297.56581     -570.55316      1266.593       3357.0013     -0.40368801   
   1080000   292.27574     -564.83081      1297.8155      3346.6401      0.26358239   
   1085000   299.72287     -551.38051      1242.917       3371.7873      1.7438412    
   1090000   294.93268     -581.46665      1280.3241      3336.2724      3.665218     
   1095000   302.30462     -584.98732      1330.2711      3448.6218      4.5703669    
   1100000   305.77755     -599.25149      1257.6846      3392.8274      15.618473    
   1105000   299.18107     -583.76073      1305.9024      3397.5475      20.056639    
   1110000   293.50355     -574.25612      1238.1054      3288.4843      6.6317761    
   1115000   301.07724     -603.97315      1272.6299      3361.019       7.3371716    
   1120000   301.1838      -598.35363      1318.1378      3413.0992      23.21639     
   1125000   300.6287      -592.9833       1253.681       3349.0488      17.101214    
   1130000   295.75599     -570.09781      1294.5078      3369.1873      6.5599092    
   1135000   303.44761     -580.65037      1314.9535      3447.8622     -3.9212185    
   1140000   303.37188     -596.59931      1269.3342      3385.6167      13.380601    
   1145000   299.61672     -592.58269      1273.2227      3359.9416      10.591773    
   1150000   303.61017     -567.04011      1311.9118      3459.8845      19.694519    
   1155000   297.45499     -607.11687      1283.9815      3336.835       4.3615754    
   1160000   299.96935     -619.88133      1361.7027      3424.2764      4.3013574    
   1165000   300.41731     -639.29649      1312.7225      3359.8868      5.3292978    
   1170000   296.76271     -584.26554      1256.5648      3326.079      -0.48831077   
   1175000   313.84421     -617.96409      1208.0087      3396.5746      10.794015    
   1180000   291.34318     -610.72045      1285.9509      3280.5464      10.179701    
   1185000   303.85274     -562.72034      1245.3747      3399.8362     -0.88776233   
   1190000   297.2301      -559.04841      1314.608       3413.519       8.4701831    
   1195000   305.2179      -561.44194      1240.611       3408.5587      11.440427    
   1200000   298.09885     -578.62528      1301.2831      3388.3859      9.4647437    
   1205000   303.0431      -574.32823      1253.9033      3389.5169      5.8554146    
   1210000   307.03129     -514.99399      1242.2373      3472.8492      5.2106776    
   1215000   301.18767     -565.55557      1288.0445      3415.8386      7.5394717    
   1220000   298.14498     -579.19635      1295.6407      3382.585      -4.4481025    
   1225000   306.92433     -544.64762      1251.0014      3451.0032      9.3328058    
   1230000   303.3378      -592.72814      1290.655       3410.5039      7.1685352    
   1235000   302.00059     -601.12516      1335.6744      3435.1684      19.863956    
   1240000   300.47576     -551.42799      1242.8479      3378.4034      5.3819925    
   1245000   295.36349     -581.44469      1254.6728      3314.4955     -4.4357575    
   1250000   301.62952     -567.96302      1324.4498      3453.7877     -5.840367     
   1255000   307.77124     -582.08389      1234.6246      3404.7635      11.225239    
   1260000   300.15167     -599.56807      1260.3407      3344.8579     -1.2648822    
   1265000   301.29017     -598.45939      1288.7742      3384.5811      17.455274    
   1270000   298.06896     -558.13137      1269.9519      3377.2814      15.979269    
   1275000   297.09586     -577.69657      1244.5965      3323.6589      10.061159    
   1280000   307.55337     -592.77818      1265.0039      3422.5003      10.207541    
   1285000   295.87906     -578.9027       1256.6738      3323.6489      6.6950009    
   1290000   302.50678     -548.43114      1307.4257      3464.1404      2.5071641    
   1295000   306.5852      -558.38403      1272.569       3455.8017     -0.6199253    
   1300000   304.91463     -556.96482      1314.1687      3483.8817      4.2132911    
   1305000   307.27214     -544.88815      1265.1636      3468.035       3.1511316    
   1310000   299.17346     -542.01267      1303.0717      3436.3968      4.4263845    
   1315000   287.59314     -578.87697      1258.4505      3251.3551     -10.763877    
   1320000   308.03955     -577.7232       1300.4224      3477.3214      6.7120754    
   1325000   298.37298     -592.90449      1268.2504      3343.5255      8.7799365    
   1330000   294.47899     -548.77116      1263.1341      3347.7208      9.1225956    
   1335000   297.87044     -541.57424      1344.02        3466.1314      5.4888815    
   1340000   299.72392     -568.87166      1288.5238      3399.9124      4.6522116    
   1345000   299.06243     -578.95338      1263.8415      3359.2331      8.765799     
   1350000   302.18883     -573.80024      1291.3178      3419.8201      11.63769     
   1355000   298.4469      -513.57283      1309.2077      3464.4754      9.2803624    
   1360000   298.28355     -554.24264      1282.9315      3396.0687      11.926715    
   1365000   300.40585     -565.48562      1268.7867      3389.6594     -2.5229649    
   1370000   305.05722     -581.55191      1308.5184      3454.9193      10.007392    
   1375000   300.52595     -563.98418      1316.3924      3439.8405      5.1981043    
   1380000   300.47058     -555.69823      1316.5257      3447.7646      2.1617042    
   1385000   302.90525     -581.04048      1303.1238      3430.7924      10.848656    
   1390000   297.25035     -567.69925      1272.726       3363.1673      8.743313     
   1395000   295.94659     -584.37247      1313.4511      3375.5603      7.5473574    
   1400000   298.22396     -577.14747      1245.9181      3335.6176      4.7987997    
   1405000   295.8318      -586.466        1258.6073      3317.5965     -1.0277478    
   1410000   294.12835     -578.64933      1198.1147      3249.6876      6.3645301    
   1415000   304.38533     -580.42218      1311.8577      3453.38        3.2563354    
   1420000   292.02815     -578.20378      1280.9437      3314.1813      4.2002752    
   1425000   298.38786     -586.48319      1250.278       3332.1074      5.0976599    
   1430000   298.25536     -582.12801      1302.7311      3387.7309      3.5358845    
   1435000   300.38526     -553.93745      1207.7861      3340.0229      9.8900448    
   1440000   302.96314     -531.09279      1266.5185      3444.6524      0.4842608    
   1445000   295.93221     -525.3908       1307.9927      3428.955      -0.76976926   
   1450000   303.44679     -493.05176      1276.7589      3497.2589     -1.945937     
   1455000   297.09193     -453.492        1284.5194      3487.7512      13.027331    
   1460000   302.44997     -460.32848      1261.4142      3505.7234      6.914608     
   1465000   301.08293     -536.28384      1287.4391      3443.5683     -2.4312898    
   1470000   300.86503     -529.7547       1264.8998      3425.6096     -3.2047068    
   1475000   299.92216     -562.34868      1246.6764      3366.3607      15.781742    
   1480000   303.85592     -550.33188      1264.468       3431.3464     -0.3546033    
   1485000   300.27733     -545.78301      1296.3692      3435.7952      1.5673887    
   1490000   295.68125     -530.93496      1281.4821      3394.6561      10.252295    
   1495000   296.80104     -522.44241      1259.0916      3390.7718      10.20075     
   1500000   293.57512     -549.20412      1276.0076      3352.0784      3.3465636    
   1505000   299.40304     -542.19545      1231.4551      3366.6503      5.3178814    
   1510000   299.10499     -551.42119      1276.0472      3399.3515      13.321047    
   1515000   299.00743     -565.79785      1283.29        3391.3452     -2.0376753    
   1520000   300.95194     -566.99101      1285.0979      3409.3486     -6.1202391    
   1525000   309.60356     -548.18508      1290.138       3510.5611      10.990953    
   1530000   298.69741     -576.83414      1273.8764      3368.123       9.175052     
   1535000   300.02509     -570.62845      1314.105       3426.43        11.417146    
   1540000   290.74735     -582.96589      1324.1646      3341.1866      5.3641167    
   1545000   298.124       -566.69123      1269.4868      3368.7486      3.3322621    
   1550000   298.02448     -576.18701      1305.7421      3394.6182      9.3491252    
   1555000   293.03823     -615.67585      1244.7493      3249.5474      9.5733701    
   1560000   301.32523     -629.56476      1291.2451      3356.2601      6.1956929    
   1565000   304.59155     -614.32331      1310.9855      3420.4508      4.4716179    
   1570000   304.42632     -597.8433       1256.2763      3380.7441      10.632602    
   1575000   290.03803     -604.38763      1298.7229      3287.9802      10.022579    
   1580000   288.09603     -607.74303      1307.5167      3276.0523      7.0809566    
   1585000   305.81663     -634.66537      1285.1513      3385.2298      10.692612    
   1590000   298.75674     -630.55077      1296.0621      3337.1226      5.1416873    
   1595000   298.71253     -614.5518       1286.2171      3342.8812     -2.4696514    
   1600000   298.45456     -613.19032      1282.1798      3337.8986      10.868312    
   1605000   300.88542     -599.82289      1301.7542      3392.5781      0.73343639   
   1610000   291.0846      -564.82842      1289.4768      3327.652       20.410661    
   1615000   298.65914     -580.75692      1252.9436      3342.9252      8.3627668    
   1620000   301.71711     -581.89765      1296.2065      3412.393       4.2758737    
   1625000   303.54867     -561.83065      1299.5551      3452.1873      7.8397611    
   1630000   309.47763     -578.10861      1239.7031      3429.0766      1.5293462    
   1635000   297.26152     -546.68929      1289.7958      3401.3469      14.135004    
   1640000   307.76563     -556.55893      1328.8079      3524.4216     -1.0298228    
   1645000   298.00799     -572.80495      1264.4008      3356.5115      2.0061812    
   1650000   295.05864     -576.41978      1230.1898      3292.3113      0.13600926   
   1655000   299.76251     -625.23179      1310.0394      3365.4129      0.76507108   
   1660000   299.5586      -565.36373      1310.469       3423.8871      8.44144      
   1665000   301.70925     -539.5436       1205.7457      3364.216       2.265062     
   1670000   298.95999     -567.56727      1192.5469      3298.4085      5.435224     
   1675000   294.69336     -600.76056      1288.2452      3322.7595      9.5226272    
   1680000   297.29418     -572.92575      1281.7372      3367.3439      12.191094    
   1685000   297.97477     -619.36713      1283.064       3328.3155     -1.1923254    
   1690000   298.13663     -619.75735      1264.8808      3311.1895      4.6600601    
   1695000   302.86549     -587.81978      1263.9311      3384.4648      8.0963968    
   1700000   301.10826     -588.92261      1294.8684      3398.5854      8.4083645    
   1705000   298.29419     -555.27272      1320.6623      3432.8646      5.0634006    
   1710000   296.02003     -580.18922      1300.2069      3367.1562      3.5966044    
   1715000   299.55883     -532.13107      1288.228       3434.8809      1.223768     
   1720000   300.99425     -549.77355      1303.6861      3445.5326      4.9830446    
   1725000   298.5414      -561.6499       1313.0133      3421.049       12.396729    
   1730000   305.35315     -582.78902      1260.8343      3408.6445      5.2850472    
   1735000   308.58337     -600.09662      1272.3008      3431.6894      6.3190206    
   1740000   294.7635      -623.51042      1318.7803      3331.1718      19.562354    
   1745000   297.56135     -571.26524      1282.3944      3372.0507      6.8026816    
   1750000   291.30662     -575.96246      1297.4391      3326.4658      6.5835243    
   1755000   294.13643     -569.50965      1284.2927      3345.0775      14.500521    
   1760000   298.73488     -589.32949      1286.5893      3368.6756      9.7622894    
   1765000   308.00297     -603.50201      1270.3972      3421.1903      8.542002     
   1770000   295.75873     -575.1668       1259.1757      3328.8107      9.2612162    
   1775000   298.84332     -568.14233      1289.2775      3393.5208      3.2213892    
   1780000   302.9244      -552.45599      1260.0664      3416.4907      0.67558091   
   1785000   298.63636     -544.19327      1296.626       3422.9675      11.152013    
   1790000   301.53814     -558.55198      1266.6628      3404.5946      12.526297    
   1795000   287.89794     -567.64829      1258.5014      3265.3603      11.034901    
   1800000   302.04595     -530.55432      1276.044       3446.5144      5.170259     
   1805000   299.98923     -542.34094      1292.8589      3433.1507      9.0132902    
   1810000   294.62527     -556.27804      1256.9499      3335.3378      4.2015575    
   1815000   303.67595     -554.51122      1294.5907      3455.6805      13.001876    
   1820000   299.47088     -526.97063      1268.0516      3419.0784      5.3913525    
   1825000   302.67702     -570.91835      1295.7058      3431.4556      2.9248408    
   1830000   302.14805     -538.00222      1278.4842      3442.4198      15.693869    
   1835000   285.62841     -562.83567      1262.4145      3253.7909      11.116348    
   1840000   298.69156     -554.23105      1267.6944      3384.4918      3.4245107    
   1845000   300.27192     -558.36585      1334.1928      3460.9876      16.895234    
   1850000   298.00147     -553.69034      1275.3233      3386.4903      11.506341    
   1855000   299.03888     -595.55723      1268.4944      3347.0715      8.5544293    
   1860000   308.99395     -564.50067      1268.4543      3467.1104      8.0334686    
   1865000   302.51008     -617.72724      1264.7942      3352.2422      2.9974471    
   1870000   310.55649     -576.29563      1329.2257      3530.0597      15.703341    
   1875000   298.8673      -571.70527      1253.1103      3354.005      -1.1423022    
   1880000   293.00784     -555.34339      1296.3004      3361.1591      8.385671     
   1885000   309.67234     -594.14635      1298.3901      3473.467       7.3115468    
   1890000   301.29351     -623.44715      1285.0374      3355.8864     -0.90582285   
   1895000   301.99963     -637.62941      1250.037       3313.0182      13.139334    
   1900000   298.22716     -614.84119      1251.8264      3303.8608      2.0188501    
   1905000   301.53603     -607.99785      1260.4775      3348.9445      8.5031091    
   1910000   300.00127     -603.13532      1299.4184      3379.0236     -2.7996908    
   1915000   301.43789     -626.49791      1215.156       3284.2454     -2.481039     
   1920000   295.94304     -595.54436      1279.1131      3330.0188      1.2279149    
   1925000   294.27234     -631.67265      1280.0123      3279.8495      8.4389008    
   1930000   308.83739     -650.73203      1251.6446      3362.6693      12.192841    
   1935000   298.63102     -645.38516      1319.505       3344.6069      1.7317913    
   1940000   305.23415     -635.06943      1217.5254      3311.991       16.723143    
   1945000   294.24659     -635.82369      1281.4591      3276.915       12.281611    
   1950000   301.70794     -613.37507      1236.2803      3320.9075      12.242031    
   1955000   301.20959     -594.9076       1297.3624      3396.0005      9.8148758    
   1960000   308.45208     -564.8522       1241.4493      3434.9083      13.195543    
   1965000   303.2477      -577.384        1296.0281      3430.4155      5.0367916    
   1970000   296.52783     -544.59437      1307.2852      3414.3702      11.790779    
   1975000   301.9745      -564.13356      1220.2438      3356.4961      0.47086739   
   1980000   299.39596     -572.96806      1288.3592      3392.7186      5.7601024    
   1985000   302.93549     -569.29149      1319.3964      3459.0844      6.3939948    
   1990000   301.82925     -580.84647      1310.5355      3428.776       8.0784412    
   1995000   296.10737     -594.82786      1262.8352      3315.9268      4.7300111    
   2000000   297.2096      -564.94412      1248.6485      3341.4805      3.099884     
   2005000   296.30307     -582.99631      1269.464       3336.1372      11.491602    
   2010000   298.96358     -576.29306      1298.075       3395.2429     -4.7096703    
   2015000   306.46285     -603.83547      1274.0992      3410.7863      5.8302205    
   2020000   299.38149     -587.15475      1285.0437      3375.087       11.110466    
   2025000   297.77351     -606.55337      1322.5211      3378.7866     -0.13556817   
   2030000   297.7711      -615.58847      1341.0323      3388.2411      6.6090328    
   2035000   306.76346     -572.92634      1299.4632      3469.7476      1.3439869    
   2040000   292.52952     -582.47919      1306.8465      3340.2922      16.76465     
   2045000   300.05519     -565.93699      1240.6026      3357.8882     -0.19934042   
   2050000   297.63312     -551.25063      1286.0662      3396.379       1.2625213    
   2055000   298.52306     -571.56872      1243.3305      3341.2834     -4.7719475    
   2060000   307.0145      -580.865        1292.568       3457.1587      6.9681098    
   2065000   305.43936     -555.07384      1315.6413      3491.9376      5.7762322    
   2070000   298.90701     -531.81717      1263.8361      3404.974       11.690236    
   2075000   293.95694     -528.87553      1316.192       3416.0059      10.662278    
   2080000   292.42501     -587.29988      1292.1984      3319.8888      1.0562449    
   2085000   296.50663     -553.28008      1258.52        3356.7298      11.763225    
   2090000   303.71648     -574.31918      1289.2428      3430.887       5.1084384    
   2095000   296.07353     -559.48304      1213.9273      3302.0611      18.711966    
   2100000   308.32971     -533.92009      1284.3803      3507.6771      4.6663727    
   2105000   305.88336     -549.3804       1270.5459      3456.5061      6.2345605    
   2110000   302.53854     -538.85393      1306.4359      3473.0117      3.9710786    
   2115000   297.70329     -579.16654      1273.616       3356.6403     -3.2694167    
   2120000   305.95832     -552.4821       1244.4968      3428.0256      5.840049     
   2125000   300.26156     -531.4364       1285.116       3438.7477     -3.4698089    
   2130000   305.06229     -551.42547      1238.0392      3414.612       8.0104485    
   2135000   303.95461     -595.999        1295.3104      3417.4042      3.6593544    
   2140000   295.99586     -591.9629       1242.9347      3297.8941      17.769634    
   2145000   304.9712      -593.23711      1295.6269      3429.5735      4.8436318    
   2150000   303.27665     -580.85184      1258.7219      3389.9003      0.27288982   
   2155000   301.80602     -574.77374      1299.7978      3423.9033      2.4570776    
   2160000   301.98966     -536.6541       1285.1024      3448.9698      10.434675    
   2165000   292.28546     -570.25048      1264.8094      3308.3013      3.9006126    
   2170000   297.08728     -554.35253      1283.0174      3385.3471      6.3366186    
   2175000   302.15844     -567.5462       1284.0189      3418.5034      10.350004    
   2180000   298.61718     -579.04919      1227.3938      3318.7079      13.960703    
   2185000   301.20519     -577.13196      1273.8059      3390.1803      18.374331    
   2190000   301.48479     -550.90361      1224.3289      3369.432       8.4080223    
   2195000   290.36747     -559.67382      1302.5058      3339.4228      5.6226907    
   2200000   304.72498     -620.0473       1300.0931      3405.0276     -3.6837803    
   2205000   292.35949     -615.68485      1247.0917      3245.8112      7.9232317    
   2210000   297.82998     -555.54198      1265.8838      3373.6656      12.608738    
   2215000   301.58734     -593.75138      1295.3873      3398.5597      4.0195566    
   2220000   292.1378      -552.73096      1252.8079      3312.4988      7.4010022    
   2225000   304.32211     -560.1527       1241.7958      3403.0224      10.281719    
   2230000   304.65218     -541.01473      1280.0336      3463.3498      12.593761    
   2235000   301.48587     -544.16111      1268.329       3420.1842     -3.0729027    
   2240000   302.76619     -536.45938      1263.5099      3434.516       1.8425178    
   2245000   309.11982     -544.06987      1282.3261      3502.5387      17.189113    
   2250000   299.37741     -543.59664      1281.2811      3414.846       0.080944085  
   2255000   298.9002      -548.25723      1293.3493      3417.9862      0.4322569    
   2260000   300.47533     -542.47122      1273.2174      3417.7258      4.6780398    
   2265000   304.79186     -558.02746      1291.5441      3459.0966      6.439939     
   2270000   304.63548     -558.20763      1292.2894      3458.2633      4.6683737    
   2275000   301.84907     -580.85963      1328.4794      3446.884      -1.1168008    
   2280000   298.79578     -586.59641      1314.1409      3399.5049      2.3506119    
   2285000   289.28389     -586.91742      1321.4215      3321.405       4.6700257    
   2290000   303.7459      -582.28691      1254.1858      3388.1253      1.7539893    
   2295000   302.15889     -551.4059       1278.0815      3428.7104      9.6725393    
   2300000   298.36594     -578.9826       1251.8449      3340.9789      2.3080701    
   2305000   300.99617     -577.91234      1265.0513      3378.7762      0.4097986    
   2310000   300.26262     -557.56099      1280.5672      3408.0837      13.873491    
   2315000   303.19891     -560.69379      1269.691       3420.3323      1.9508111    
   2320000   298.85784     -568.47129      1242.5083      3346.5524      2.4255233    
   2325000   304.83143     -579.45578      1268.8884      3415.3664      13.112427    
   2330000   299.49495     -567.89601      1274.9005      3385.2171      13.938325    
   2335000   295.82934     -596.81178      1317.0109      3365.6323     -5.0021298    
   2340000   296.00337     -611.64789      1321.7687      3357.1102      10.402988    
   2345000   295.32525     -602.4347       1314.2542      3352.7449      20.456872    
   2350000   298.35554     -620.88211      1229.716       3276.8575      13.988462    
   2355000   295.40728     -593.40113      1289.3259      3337.5838      10.394057    
   2360000   307.18436     -582.28902      1259.5363      3424.222      -0.3526554    
   2365000   296.72857     -587.24711      1263.6992      3329.9266      2.8706925    
   2370000   297.34293     -611.88752      1245.9016      3292.9825      6.1410714    
   2375000   299.23769     -592.60871      1297.6427      3380.9461      8.3326836    
   2380000   304.60894     -586.16835      1296.9761      3434.7519      7.454753     
   2385000   299.45374     -604.21747      1231.0827      3304.7093      6.6429733    
   2390000   299.20949     -604.41698      1312.0495      3383.2925     -3.2667697    
   2395000   294.68721     -573.66119      1280.0127      3341.5712      14.879522    
   2400000   303.62233     -585.77801      1307.0735      3436.417       3.0829417    
   2405000   301.92105     -579.78531      1294.7928      3414.9153     -4.5071685    
   2410000   293.40009     -562.41202      1270.0894      3331.3871      11.687711    
   2415000   295.75085     -599.90641      1275.4047      3320.2296      16.122143    
   2420000   306.27436     -578.11493      1289.2116      3449.9338      5.0319596    
   2425000   301.2532      -587.99952      1259.6165      3365.5526     -7.3466586    
   2430000   302.51211     -552.91172      1274.2376      3426.5192      0.48785717   
   2435000   306.69691     -528.17867      1297.4266      3511.8636      5.6203196    
   2440000   295.27339     -546.55619      1309.3945      3403.2999      7.5833149    
   2445000   299.97724     -568.27489      1331.3213      3445.572       4.0461475    
   2450000   301.27847     -531.86489      1258.9375      3421.2342      0.87595299   
   2455000   294.75058     -535.23365      1308.5239      3409.0766      1.8083258    
   2460000   301.17983     -579.47824      1316.0287      3429.83        10.288348    
   2465000   295.63419     -656.28259      1207.1595      3194.565       6.3635369    
   2470000   302.63576     -636.07561      1292.7618      3362.9853      1.496298     
   2475000   302.9819      -634.92845      1300.0489      3374.5149     -1.7057345    
   2480000   297.56277     -625.0182       1209.9144      3245.8304      15.899203    
   2485000   296.84655     -634.54105      1264.7071      3284.6955      10.155521    
   2490000   306.22682     -615.02719      1270.5576      3393.9423      0.52887914   
   2495000   301.60961     -644.82881      1278.1542      3330.4482      2.8589886    
   2500000   296.3274      -625.6924       1282.3196      3306.5143      8.5335163    
   2505000   299.64006     -641.06002      1293.4919      3331.9422     -3.4063095    
   2510000   303.20502     -647.54843      1275.3206      3339.1619     -0.015869979  
   2515000   295.52276     -650.71623      1277.5643      3269.5397      4.296603     
   2520000   306.05838     -604.52341      1263.315       3395.6973     -3.7887879    
   2525000   306.74156     -606.85656      1326.6461      3462.8045      6.9376386    
   2530000   306.96959     -603.68746      1266.2463      3407.613       12.453744    
   2535000   295.06292     -576.20631      1258.444       3320.8173      2.5705555    
   2540000   303.20632     -566.57776      1285.1952      3430.0188     -9.2084395    
   2545000   302.44825     -554.00194      1251.2405      3401.8609      14.864712    
   2550000   302.30087     -553.80179      1260.0419      3409.5445      8.5980156    
   2555000   290.94374     -576.5965       1272.3989      3297.5465      11.038913    
   2560000   296.4235      -525.42424      1239.1679      3364.4901      19.630188    
   2565000   301.75233     -539.70865      1289.1753      3447.8658     -3.6445092    
   2570000   300.27865     -534.87696      1325.313       3475.6569      7.9593053    
   2575000   303.03794     -535.45392      1234.1714      3408.6131      2.6478487    
   2580000   300.34202     -556.30862      1337.1546      3466.6336      8.4013248    
   2585000   305.48207     -557.53942      1264.7026      3438.9153     -3.8198803    
   2590000   306.39915     -561.48135      1304.9798      3483.4515     -0.45123444   
   2595000   305.13308     -537.45618      1262.1605      3453.3356      17.863761    
   2600000   302.0994      -517.07856      1248.5372      3432.9614     -3.9176392    
   2605000   303.87766     -515.84658      1257.2389      3458.797       18.024563    
   2610000   303.00058     -545.89214      1267.7064      3431.3758      11.879455    
   2615000   302.96927     -554.25941      1298.5779      3453.6         6.0457475    
   2620000   294.94299     -545.96857      1268.0613      3359.5998      7.2501925    
   2625000   293.0918      -583.08473      1322.3936      3360.2618     -6.9823562    
   2630000   292.83596     -594.13763      1249.4284      3273.9559     -1.9237838    
   2635000   306.94811     -567.0327       1253.5179      3431.3473     -2.2350999    
   2640000   298.91        -550.12202      1280.9867      3403.8464      8.6939755    
   2645000   302.8862      -570.20687      1267.9269      3406.2587      15.462382    
   2650000   301.4737      -582.72736      1275.1698      3388.3499      2.8614486    
   2655000   297.0884      -561.88018      1249.4809      3344.293       10.159698    
   2660000   299.47248     -583.68427      1277.4992      3371.8266      13.662544    
   2665000   302.3403      -609.24044      1218.3846      3312.8011      16.552495    
   2670000   292.61647     -609.21354      1262.2868      3269.7756      1.342388     
   2675000   296.98756     -603.73544      1296.144       3348.1991      2.7581467    
   2680000   307.31688     -586.7104       1273.8109      3435.2603      13.101133    
   2685000   304.77981     -589.92776      1357.6337      3493.1781      3.3593992    
   2690000   306.5135      -603.91899      1305.0797      3442.1362      7.6811496    
   2695000   297.805       -607.20454      1267.9389      3323.8348      16.121437    
   2700000   295.92465     -619.28607      1295.3433      3322.3428      24.267079    
   2705000   298.2964      -565.09444      1303.9274      3406.3278      4.4081726    
   2710000   305.64658     -587.65356      1275.422       3420.9916      3.4889454    
   2715000   304.14334     -585.06815      1266.893       3401.6054      9.6762552    
   2720000   299.25811     -562.02954      1291.8166      3405.8819      10.982226    
   2725000   300.9223      -584.62428      1276.2674      3382.6197      15.084861    
   2730000   301.63077     -592.47854      1274.0811      3378.9147     -2.547889     
   2735000   304.13448     -585.25227      1249.7014      3384.1504      14.533044    
   2740000   305.59071     -607.78802      1321.2631      3446.1987      8.6835634    
   2745000   292.1266      -592.96028      1291.0292      3310.3907      15.532407    
   2750000   297.58348     -598.75531      1278.0033      3340.3675      6.1272374    
   2755000   300.98701     -593.30362      1240.2808      3338.5325      6.9733819    
   2760000   301.11435     -592.93241      1237.2855      3337.0471      4.8730933    
   2765000   304.8843      -592.81088      1298.7098      3432.3054      14.897743    
   2770000   300.24641     -595.45179      1306.9038      3396.3845      14.953575    
   2775000   298.79239     -591.97682      1308.5909      3388.5442      3.4217243    
   2780000   306.16002     -599.19923      1297.084       3435.6994      4.9862823    
   2785000   302.68481     -616.78297      1337.6419      3427.5967      7.6698889    
   2790000   301.16762     -630.3771       1294.4638      3357.2571      1.2355534    
   2795000   312.76715     -595.60374      1283.9945      3485.2891      5.9425502    
   2800000   295.39089     -610.84016      1275.1845      3305.8568      6.3754388    
   2805000   303.2213      -602.97453      1278.7159      3387.2767      9.0218667    
   2810000   300.3776      -596.21181      1279.6978      3369.5917      6.9688324    
   2815000   298.48495     -543.87224      1328.6152      3453.9238     -3.791646     
   2820000   304.13038     -561.5078       1279.5118      3437.6687      10.335881    
   2825000   302.62742     -574.99639      1234.8261      3366.0543      13.145959    
   2830000   300.22565     -549.82385      1280.0859      3415.0089     -2.6880488    
   2835000   300.52297     -545.99571      1275.8416      3417.2516      12.10088     
   2840000   299.99792     -554.34258      1291.0709      3419.4388      22.760142    
   2845000   299.58249     -532.87828      1314.5988      3460.716      -0.49659235   
   2850000   300.5338      -543.48414      1296.6147      3440.633       9.5146256    
   2855000   302.08281     -557.04654      1272.1821      3416.4899      5.969633     
   2860000   302.69203     -592.90142      1246.545       3360.4459      18.328011    
   2865000   298.13155     -594.55593      1213.2929      3284.7575      8.195223     
   2870000   306.04138     -605.81798      1274.7801      3405.7158      16.865162    
   2875000   305.16205     -613.02675      1277.053       3392.9165      8.0258058    
   2880000   300.97591     -602.95063      1278.7192      3367.2246      13.90122     
   2885000   301.45413     -603.98596      1247.8838      3339.6303      1.6356511    
   2890000   306.28393     -583.70684      1268.4983      3423.7141      6.4331042    
   2895000   299.48049     -590.75185      1242.8272      3330.1587      7.9747897    
   2900000   307.56077     -589.11472      1299.7667      3460.9926      10.951898    
   2905000   302.76815     -558.02242      1270.934       3420.3947      5.7573394    
   2910000   301.7683      -571.4943       1299.538       3426.5857      11.407339    
   2915000   300.24569     -562.20171      1262.1795      3384.9039      3.6718206    
   2920000   293.20193     -558.03215      1216.7401      3280.6457      3.1729612    
   2925000   306.82464     -558.42963      1228.1915      3413.5198      9.6218603    
   2930000   294.87099     -598.38451      1282.7434      3321.2222      12.71097     
   2935000   305.77696     -614.49643      1259.0639      3378.9566      17.035613    
   2940000   303.70088     -606.54428      1240.1046      3349.3842      12.798039    
   2945000   304.14405     -597.05277      1222.1566      3344.8908      9.2141482    
   2950000   301.31662     -590.20312      1262.3064      3366.6062      10.984805    
   2955000   298.33341     -596.75         1310.5781      3381.6538     -0.0005146739 
   2960000   293.53048     -600.88209      1290.2763      3314.27        6.9461054    
   2965000   298.36242     -651.70116      1309.1845      3325.5684      6.5644977    
   2970000   296.39049     -603.80339      1264.1733      3310.8211      4.1624889    
   2975000   301.44953     -598.37911      1286.3262      3383.6385      14.918541    
   2980000   293.6863      -590.40956      1252.5439      3288.4035      9.8024133    
   2985000   294.16775     -585.80551      1281.6726      3326.4416      7.0455518    
   2990000   298.52317     -598.35122      1270.0885      3341.2599      16.781529    
   2995000   297.52404     -607.17261      1250.4681      3303.8835      6.4195523    
   3000000   298.41523     -610.31284      1324.6819      3382.9264      6.6937358    
   3005000   299.50685     -601.31802      1284.2503      3361.2514      0.93948567   
   3010000   302.59513     -572.07186      1300.9638      3434.8277     -1.316649     
   3015000   300.51234     -556.01641      1303.9918      3435.286       4.2168935    
   3020000   305.76404     -571.11271      1262.2297      3425.3906      3.8255671    
   3025000   297.67604     -560.95785      1326.0277      3427.0171      3.5082724    
   3030000   297.79326     -572.31983      1295.7345      3386.41        4.676642     
   3035000   299.08164     -589.15269      1294.1986      3379.5626      20.812307    
   3040000   299.98352     -564.10953      1273.1602      3391.6323     -4.6636094    
   3045000   307.7037      -588.04808      1234.5378      3398.1086      23.282661    
   3050000   298.7715      -559.81302      1264.3752      3376.3054      8.8556849    
   3055000   303.92141     -581.84235      1249.6419      3385.5955      16.516113    
   3060000   302.41505     -557.74902      1273.9639      3420.5403      2.3218791    
   3065000   299.04892     -585.00632      1222.2132      3311.431       19.88002     
   3070000   296.78632     -601.08591      1309.2054      3362.1105      8.4665252    
   3075000   299.81171     -594.99616      1322.386       3408.4351      8.9683842    
   3080000   301.75427     -635.60233      1274.661       3337.4752      12.299259    
   3085000   300.53628     -608.91966      1256.8295      3335.4345      7.4582445    
   3090000   297.94079     -591.97267      1322.9342      3395.2762     -2.0315642    
   3095000   297.04564     -601.5592       1354.2543      3409.005      -5.9587026    
   3100000   303.64971     -601.74545      1295.8304      3409.4513      9.96159      
   3105000   301.58447     -580.51923      1265.835       3382.2138      10.344046    
   3110000   297.9652      -565.78105      1261.3417      3360.0936      20.48308     
   3115000   295.50404     -554.16225      1245.6846      3334.0466      19.126879    
   3120000   304.26884     -597.85128      1233.6393      3356.6909      15.131407    
   3125000   298.61113     -562.03603      1256.4393      3364.7124      5.8418431    
   3130000   304.80297     -592.73417      1262.4718      3395.4169      11.030852    
   3135000   305.14796     -555.56487      1231.9315      3405.131       14.267807    
   3140000   298.10935     -572.46104      1308.6374      3401.9983      0.25635698   
   3145000   302.0771      -569.90673      1274.1406      3405.5372      6.8587552    
   3150000   296.38706     -557.45201      1313.6784      3406.6469      7.2400178    
   3155000   295.70547     -589.35858      1299.2308      3354.1977      0.93982265   
   3160000   301.7889      -594.82713      1283.8826      3387.7816     -0.15062799   
   3165000   301.02676     -576.04605      1283.1168      3398.9815     -4.8017874    
   3170000   289.75238     -592.58898      1266.0841      3264.5856      2.779167     
   3175000   302.09646     -582.53314      1295.6671      3414.6105      9.6865955    
   3180000   301.53673     -592.41944      1280.5253      3384.5769     -4.2247178    
   3185000   301.72933     -604.11422      1301.0199      3395.0991      0.43968534   
   3190000   298.07851     -579.80285      1261.3552      3347.0986      7.6222317    
   3195000   306.37214     -581.98978      1303.3765      3461.0982     -1.1154194    
   3200000   301.65534     -603.86251      1231.0303      3324.6996      14.084678    
   3205000   309.01561     -572.85207      1265.3142      3455.8127      13.541892    
   3210000   301.2575      -610.53529      1262.9947      3346.4335     -2.2743291    
   3215000   307.29122     -599.92358      1258.356       3406.3627      2.9454106    
   3220000   308.44973     -587.11794      1259.2687      3430.4409      17.118741    
   3225000   293.15025     -572.62733      1269.2473      3318.0956      10.718788    
   3230000   291.82532     -606.53561      1225.7347      3228.8266      14.430172    
   3235000   301.12792     -609.78456      1277.4812      3360.5121     -1.717575     
   3240000   297.67088     -636.44585      1261.9863      3287.4416      6.5702174    
   3245000   303.7         -617.73629      1227.5844      3325.6642     -4.9844992    
   3250000   302.06217     -576.34542      1275.7186      3400.5431      14.429007    
   3255000   299.58289     -564.85991      1255.9577      3370.0969      2.6935904    
   3260000   296.75248     -563.46396      1230.6908      3320.9151      1.6073372    
   3265000   297.10423     -575.82244      1234.9009      3315.9123      3.1010072    
   3270000   302.30305     -570.5282       1355.1874      3487.9831      4.2846892    
   3275000   300.31861     -529.82067      1271.639       3427.3965      3.658684     
   3280000   298.49978     -556.17316      1292.5564      3405.6967      19.310111    
   3285000   307.50962     -552.25385      1281.7809      3479.4104      1.5549371    
   3290000   292.31161     -566.99456      1275.7239      3322.7055      16.363399    
   3295000   300.14426     -563.40001      1270.4357      3391.0548      9.8471317    
   3300000   301.04951     -588.68947      1279.0673      3382.492      -0.43996672   
   3305000   301.96403     -592.09294      1295.6248      3403.8241      11.304637    
   3310000   293.98027     -590.68786      1268.2882      3306.4984      4.3755535    
   3315000   300.37501     -589.66681      1307.8484      3404.2641      25.076464    
   3320000   298.75751     -561.18362      1292.007       3402.4415      15.70375     
   3325000   300.91529     -611.10162      1240.528       3320.3404      21.791626    
   3330000   309.42948     -603.29371      1265.0194      3428.7772      11.438993    
   3335000   304.52987     -572.57744      1306.4372      3457.0968      8.8419814    
   3340000   294.59774     -596.37988      1262.772       3300.8119      8.245056     
   3345000   301.24255     -595.89832      1244.6383      3342.5805      3.5123927    
   3350000   300.89928     -624.58822      1244.7666      3310.9492     -2.7121982    
   3355000   297.33049     -597.17162      1276.9367      3338.6222     -3.876214     
   3360000   301.24383     -565.22939      1269.9559      3398.5784      9.3920622    
   3365000   297.55783     -603.43655      1276.0389      3333.4925      7.685698     
   3370000   300.04472     -609.20191      1256.869       3330.796       12.419975    
   3375000   297.3312      -592.22554      1288.5011      3355.139       6.5069763    
   3380000   296.30992     -594.2113       1284.1569      3339.6764      13.209874    
   3385000   301.35647     -615.56011      1251.6763      3330.9754      4.0030036    
   3390000   297.84912     -606.47221      1274.6768      3331.6996     -3.544163     
   3395000   298.74821     -600.66393      1240.4878      3311.3589      15.466089    
   3400000   304.53772     -585.27832      1335.841       3473.87        12.203781    
   3405000   307.52926     -579.56141      1258.0889      3428.5864      18.88588     
   3410000   299.40645     -589.21959      1263.4019      3351.6036      4.7772741    
   3415000   307.38839     -572.42605      1235.5526      3411.9258      11.330119    
   3420000   303.41313     -557.08583      1305.4594      3461.6243      21.274977    
   3425000   292.446       -639.62898      1257.315       3232.864       4.3452509    
   3430000   302.66759     -631.90393      1295.3739      3370.0537      6.9848635    
   3435000   300.27786     -595.11969      1340.0611      3430.1552     -7.9381446    
   3440000   293.26366     -575.80254      1278.4869      3325.1742     -8.4554965    
   3445000   294.46796     -569.0951       1295.0402      3359.2042      6.1059137    
   3450000   298.5411      -595.43675      1276.389       3350.6352      1.4932255    
   3455000   287.16544     -593.17423      1283.3871      3258.1697      6.6953695    
   3460000   297.8174      -604.47557      1276.3246      3335.0603      6.5460229    
   3465000   307.71592     -593.03658      1285.7434      3444.4349      7.265589     
   3470000   300.20819     -558.91988      1244.6944      3370.3653      10.688411    
   3475000   298.16253     -583.59268      1283.4901      3366.195       7.1091517    
   3480000   298.55951     -561.60533      1277.4123      3385.6545      3.8172041    
   3485000   301.43071     -606.85761      1261.9089      3350.5743      12.470204    
   3490000   305.26567     -587.23751      1244.3926      3386.9721      17.37933     
   3495000   299.22683     -600.52355      1240.2231      3315.5146     -10.408811    
   3500000   302.11631     -636.05941      1255.4048      3320.9994      10.972966    
   3505000   308.27244     -592.95884      1280.2147      3443.9607      17.525723    
   3510000   307.93195     -607.71092      1248.3757      3394.3248      10.207483    
   3515000   296.83142     -572.37654      1266.2807      3348.2985      7.2139546    
   3520000   300.88674     -589.57978      1330.9393      3432.0182      12.491047    
   3525000   300.76324     -536.68933      1260.1702      3413.0352      7.9378958    
   3530000   300.30517     -569.01956      1299.2832      3415.7217      4.3098221    
   3535000   304.39559     -571.37147      1223.3104      3373.9753      3.4036824    
   3540000   296.95343     -566.09983      1262.4847      3351.8702      0.23540804   
   3545000   293.29717     -562.40179      1304.7402      3365.1278      3.3783793    
   3550000   297.8253      -572.87231      1257.7878      3348.1974      17.912398    
   3555000   291.69374     -561.69254      1296.3663      3343.1247      6.7804776    
   3560000   295.59666     -565.01223      1295.3722      3373.7124      7.9461327    
   3565000   308.13298     -558.06542      1262.4638      3459.856       7.6374475    
   3570000   302.92482     -581.39703      1257.8868      3385.3737      6.5921       
   3575000   303.52309     -566.3752       1272.4744      3420.3332      13.645144    
   3580000   305.73494     -578.90762      1340.4675      3495.5732      8.8474301    
   3585000   298.95766     -548.08475      1272.1447      3397.4679      6.0060016    
   3590000   302.38525     -546.61332      1303.9733      3461.419      -0.90615161   
   3595000   301.23881     -554.07721      1256.5903      3396.3202      9.1960649    
   3600000   296.28754     -574.61352      1288.0597      3362.9768      14.374366    
   3605000   297.87407     -549.00319      1246.4276      3361.1424      12.789015    
   3610000   294.49234     -579.84811      1287.1598      3340.7888      3.8854556    
   3615000   305.74703     -583.9911       1273.6045      3423.7348      13.704202    
   3620000   299.39631     -588.76479      1293.2379      3381.8037     -5.9061131    
   3625000   298.87826     -610.77932      1299.9076      3361.8263      9.4371813    
   3630000   294.72177     -584.56791      1317.6324      3368.5933      3.7628931    
   3635000   296.94187     -588.10212      1280.2752      3347.555       7.3862393    
   3640000   298.26871     -590.31083      1288.2615      3365.1978      8.0130394    
   3645000   297.22627     -568.90277      1296.5307      3385.5532      8.4342088    
   3650000   299.10407     -557.60523      1294.1089      3411.2209      1.3186395    
   3655000   301.73163     -593.40872      1256.3571      3361.1623      1.9349246    
   3660000   303.26525     -602.08689      1297.1225      3406.9639      1.180852     
   3665000   296.36605     -617.25927      1322.7277      3355.7011     -4.2203586    
   3670000   299.6934      -575.56415      1291.9817      3396.4048      12.474786    
   3675000   300.30137     -574.55625      1247.474       3358.3418      13.996781    
   3680000   304.03485     -575.90249      1316.6378      3459.5458      9.4739294    
   3685000   296.70693     -592.32441      1248.4585      3309.4151      1.7734245    
   3690000   299.79196     -567.53119      1301.2213      3414.5587      9.1221997    
   3695000   302.15893     -605.15132      1296.2314      3393.1151      8.1932079    
   3700000   297.87433     -631.43325      1298.717       3331.0041      13.352481    
   3705000   313.04036     -592.4975       1276.8076      3483.6517      6.6807446    
   3710000   303.18202     -612.78202      1243.4709      3341.873      -3.1391568    
   3715000   301.70479     -577.41019      1287.8964      3408.4602      7.616589     
   3720000   301.28507     -593.91898      1330.9613      3431.263       4.6249082    
   3725000   298.19398     -589.46175      1326.8565      3403.9737      6.5840679    
   3730000   310.82206     -593.2792       1281.3603      3467.5856      6.8206477    
   3735000   300.70962     -568.42637      1340.3926      3461.041       4.6205421    
   3740000   297.45722     -580.12203      1245.3967      3325.2651      4.2813464    
   3745000   298.52554     -566.9691       1258.8157      3361.3904      4.0080132    
   3750000   290.04331     -541.43745      1280.2649      3332.5195      1.9277599    
   3755000   297.85658     -595.79627      1293.5962      3361.3616      2.6927449    
   3760000   298.51073     -591.19308      1251.8434      3330.0617      7.3612105    
   3765000   292.5034      -567.39028      1273.0531      3321.354       9.0842799    
   3770000   301.82122     -592.89479      1310.2531      3416.3735      8.1128167    
   3775000   304.77465     -589.88633      1263.2657      3398.8053     -0.15374867   
   3780000   296.93838     -605.78118      1295.9208      3345.4904     -0.012899094  
   3785000   297.63149     -616.81463      1268.8949      3313.6291      13.301873    
   3790000   297.47917     -626.79625      1243.662       3277.0524      12.403808    
   3795000   296.77244     -604.60014      1263.0871      3312.3538      27.884384    
   3800000   300.88774     -597.74044      1290.5089      3383.436       1.3092133    
   3805000   309.97752     -584.73134      1262.5304      3449.7514      1.5355062    
   3810000   297.79979     -595.28777      1281.597       3349.3631     -0.32033159   
   3815000   297.44484     -579.94838      1276.7714      3356.7027      3.8448109    
   3820000   288.32765     -568.68072      1271.1639      3280.833       9.9318543    
   3825000   293.4473      -573.11154      1242.8653      3293.8858      6.5231395    
   3830000   295.96226     -582.43061      1295.172       3359.3632      11.327216    
   3835000   293.49833     -563.62196      1258.1216      3319.088       4.9678406    
   3840000   294.69658     -575.66682      1321.1472      3380.784       22.602226    
   3845000   298.37267     -530.36601      1298.9109      3436.7216      2.5199627    
   3850000   305.73915     -546.51528      1308.5966      3496.1324     -1.4017449    
   3855000   296.34583     -563.13913      1264.3762      3351.289       6.1954118    
   3860000   292.89368     -585.39719      1278.722       3312.5061      12.057916    
   3865000   299.02471     -557.35087      1289.1263      3405.7831      7.3259739    
   3870000   294.67265     -577.54367      1246.2092      3303.7551     -5.1094759    
   3875000   296.97321     -578.9487       1266.0893      3342.8028      8.4728926    
   3880000   297.52839     -576.05081      1283.876       3368.452       10.335278    
   3885000   298.67114     -619.20092      1319.4736      3371.1185      2.6349038    
   3890000   295.92639     -637.54376      1275.0727      3283.83        0.38954998   
   3895000   297.71282     -667.00191      1281.0476      3276.3218      9.223123     
   3900000   297.6518      -606.26816      1255.656       3311.1183      3.8971926    
   3905000   304.52331     -613.08459      1302.0314      3412.1252      7.3322555    
   3910000   298.75031     -566.2776       1249.4309      3354.7071      2.7957553    
   3915000   298.8739      -554.11795      1288.2815      3406.8224     -4.1011317    
   3920000   299.45445     -573.23846      1231.1169      3335.7289     -0.12762617   
   3925000   291.9199      -588.43804      1284.2153      3306.2506      4.6399753    
   3930000   301.92046     -618.77254      1236.7097      3317.8398      14.129563    
   3935000   298.80308     -581.23368      1304.1143      3394.9063     -2.1405823    
   3940000   299.48966     -597.83029      1234.3711      3314.7061      14.128005    
   3945000   295.85569     -560.12472      1280.3845      3365.9286     -0.40443168   
   3950000   293.19462     -566.92051      1280.6717      3335.6236      4.1133663    
   3955000   299.32831     -538.30622      1326.8639      3465.2802      8.3471059    
   3960000   294.31863     -545.21251      1358.2987      3445.01        3.281294     
   3965000   290.48816     -557.58145      1318.6181      3358.7067     -5.8153386    
   3970000   299.53946     -555.94694      1261.9685      3384.6323      13.881727    
   3975000   300.29952     -585.35138      1314.1836      3414.2397     -8.412085     
   3980000   298.90458     -586.59993      1294.0484      3380.3818      3.8435177    
   3985000   305.75304     -580.44402      1283.6585      3437.3897      2.0073267    
   3990000   302.99054     -559.86824      1246.668       3396.2715      12.684       
   3995000   297.94996     -580.11231      1308.0213      3392.3057      3.4599924    
   4000000   289.90569     -559.41659      1249.5918      3282.6366      8.4563136    
   4005000   302.34968     -572.16462      1318.766       3450.3423      0.11278839   
   4010000   296.40006     -558.98008      1254.9958      3346.5525      14.45075     
   4015000   299.55297     -552.38477      1280.7315      3407.0782      19.553763    
   4020000   303.95386     -551.86766      1244.163       3410.3815     -2.0929337    
   4025000   295.93534     -583.07778      1261.6972      3325.0005      12.760269    
   4030000   296.7273      -599.49678      1299.5583      3353.5246      4.5254682    
   4035000   298.26858     -569.29906      1291.2592      3389.2061     -1.2491334    
   4040000   304.64912     -555.36809      1295.6771      3464.6124      3.2641843    
   4045000   295.38397     -566.30711      1262.9948      3338.1382      0.03581806   
   4050000   301.86793     -572.82962      1267.6079      3394.2112      0.71441028   
   4055000   299.84437     -536.83844      1309.5853      3454.0842     -9.7771402    
[...]
  23945000   300.17397     -566.79725      1284.219       3401.7065      1.9751874    
  23950000   298.4519      -502.05211      1217.0687      3383.9019      8.6959232    
  23955000   303.2449      -515.20954      1262.0872      3458.624       12.000705    
  23960000   298.14633     -541.86016      1275.8522      3400.1447      4.9071971    
  23965000   301.58728     -557.85487      1260.2752      3399.3435      8.3316839    
  23970000   301.11824     -544.86413      1277.0726      3424.9373      5.7399425    
  23975000   301.08288     -545.36036      1261.1107      3408.163       15.307941    
  23980000   297.214       -580.44413      1271.1656      3348.5369      8.9401505    
  23985000   295.18487     -598.75553      1306.8989      3347.8135      3.8853485    
  23990000   296.56633     -552.04006      1253.975       3353.9587      6.8616601    
  23995000   302.56745     -523.87308      1268.6529      3450.468      -2.863811     
  24000000   301.87727     -548.10701      1285.0084      3436.4177      2.9082867    
  24005000   303.43388     -585.76285      1271.0926      3398.7661      8.5149293    
  24010000   296.99822     -607.41464      1282.6191      3331.0903      4.7135709    
  24015000   304.43554     -599.96845      1254.4725      3376.8976      3.9282216    
  24020000   298.98402     -576.65068      1271.9272      3368.9202     -0.88897666   
  24025000   292.11959     -573.8795       1254.7547      3293.1343      4.6811592    
  24030000   305.6018      -604.13962      1296.4627      3425.1459      17.999931    
  24035000   302.82689     -633.86204      1259.2294      3333.3757      8.1768523    
  24040000   300.33864     -549.32883      1281.6348      3418.0633      6.8953865    
  24045000   301.30255     -558.2113       1246.6354      3382.8012      15.252456    
  24050000   293.97396     -564.23734      1314.7753      3379.3795      13.209728    
  24055000   292.96683     -574.41162      1300.5487      3345.9726      1.0782711    
  24060000   295.51651     -579.06876      1251.6707      3315.2377      8.3899405    
  24065000   303.09542     -572.86783      1281.0093      3418.5511      4.8274743    
  24070000   295.07985     -585.886        1257.3984      3310.2433     -0.82216179   
  24075000   301.2923      -564.56576      1256.0847      3385.8043      2.882376     
  24080000   300.55864     -545.93973      1313.1385      3454.9235      6.2236029    
  24085000   294.09154     -582.7136       1254.646       3301.8255      3.7031615    
  24090000   301.28302     -561.29634      1306.6563      3439.5623      3.0215305    
  24095000   297.74153     -582.21828      1305.7732      3386.0878      11.256762    
  24100000   300.03069     -557.02145      1310.1008      3436.0829     -3.1329546    
  24105000   296.32762     -574.45059      1286.9139      3362.3524     -4.0821066    
  24110000   295.57159     -609.74867      1289.2695      3322.6491      13.857704    
  24115000   288.15306     -594.9334       1293.7171      3275.5724      7.370126     
  24120000   305.0386      -595.9697       1276.4083      3408.2249      0.19166064   
  24125000   285.16694     -566.37656      1290.3154      3274.0244      1.8415995    
  24130000   301.58104     -560.37906      1273.9901      3410.4784      12.919622    
  24135000   305.01198     -584.73443      1284.0334      3426.8473      22.373061    
  24140000   308.19225     -566.46561      1270.2899      3459.812       13.892499    
  24145000   303.75644     -575.58533      1288.0498      3428.7852      10.017557    
  24150000   302.57991     -580.8127       1306.8297      3431.8167      4.2646798    
  24155000   297.5945      -577.24453      1237.393       3321.3665      2.1020208    
  24160000   298.05728     -569.16591      1320.7982      3416.9887      5.8537736    
  24165000   303.36701     -543.63618      1275.2368      3444.4389     -2.0652276    
  24170000   304.15951     -562.44944      1311.0089      3468.4847      9.2845353    
  24175000   292.02731     -592.44309      1232.2865      3251.2772      9.6623765    
  24180000   297.10419     -569.66667      1270.4114      3357.5782      0.11102534   
  24185000   300.50271     -564.31727      1277.3521      3400.2593      12.1244      
  24190000   300.45202     -539.18989      1294.1028      3441.684       4.2449339    
  24195000   305.12299     -547.56014      1299.3372      3480.3182      8.2544798    
  24200000   304.54524     -573.98918      1296.65        3446.0353      4.6963614    
  24205000   297.48528     -549.68667      1250.6798      3361.2345      16.757311    
  24210000   307.28497     -599.3096       1239.271       3387.8358      3.4661707    
  24215000   298.50533     -606.63544      1293.9522      3356.6799      4.7615042    
  24220000   298.22968     -573.51433      1260.6635      3354.0473      3.0964641    
  24225000   299.55729     -598.32787      1256.7535      3337.1958      16.707586    
  24230000   308.79138     -568.80326      1229.9484      3422.4905      4.1770392    
  24235000   290.90175     -552.17121      1287.6737      3336.8711      12.035971    
  24240000   302.19653     -565.29864      1286.9939      3424.0666     -8.1149574    
  24245000   304.24928     -539.20379      1305.0367      3486.5608      10.779628    
  24250000   305.65747     -559.62004      1261.5593      3435.2599      11.516847    
  24255000   303.40583     -558.08382      1326.5916      3481.6932      8.4742889    
  24260000   303.46016     -556.57452      1261.3343      3418.4311      12.257759    
  24265000   301.51589     -544.50462      1305.4709      3457.2511      3.5776776    
  24270000   296.41434     -554.47812      1265.3789      3361.5654      16.032234    
  24275000   302.76799     -564.5504       1310.8174      3453.7486     -1.7405333    
  24280000   299.73207     -556.00851      1286.6362      3410.9608     -10.557122    
  24285000   297.963       -568.29238      1243.9316      3340.1525     -2.7079577    
  24290000   291.3223      -563.04491      1257.6843      3299.7687      11.479085    
  24295000   295.58675     -574.30592      1298.2858      3367.2438      5.5002885    
  24300000   298.35668     -574.07639      1236.5967      3330.5541      16.790622    
  24305000   290.31587     -556.77231      1247.9648      3287.3219      1.6082792    
  24310000   298.22841     -551.57366      1273.3519      3388.6649     -2.4506564    
  24315000   301.14053     -544.10976      1232.3757      3381.1941      15.358324    
  24320000   302.19117     -580.30114      1240.282       3362.3044      9.5501597    
  24325000   293.83298     -574.67793      1251.1551      3304.058      -4.1439592    
  24330000   306.46475     -589.98903      1233.6156      3384.1662      4.6227796    
  24335000   300.96036     -575.39256      1248.03        3363.9545      9.575675     
  24340000   306.66431     -581.31411      1265.1027      3426.1128      7.436517     
  24345000   298.41357     -570.63809      1283.2718      3381.1763     -4.5410625    
  24350000   298.61191     -567.00728      1247.5139      3350.8227      10.089746    
  24355000   299.35468     -542.02224      1314.6998      3449.6359     -3.3475058    
  24360000   304.75395     -557.43842      1272.5239      3440.3264     -1.0093402    
  24365000   297.72982     -534.31493      1299.8888      3428.002       1.9983007    
  24370000   301.50903     -533.37181      1218.2828      3381.1345      5.3381201    
  24375000   293.16943     -561.59237      1276.3532      3336.408       13.86588     
  24380000   293.20184     -564.09117      1262.1295      3319.9753      3.5164152    
  24385000   295.87222     -582.05023      1244.0429      3307.8093      4.7711643    
  24390000   304.81847     -556.60275      1272.899       3442.1141      1.6069659    
  24395000   307.79673     -542.43697      1304.9912      3515.005       6.4249454    
  24400000   300.46575     -580.48561      1300.8129      3407.2213      13.894751    
  24405000   297.50871     -597.67847      1274.5345      3337.3069     -5.0897414    
  24410000   300.28877     -536.94853      1239.0575      3387.4203      8.0102661    
  24415000   301.41839     -559.38789      1266.7408      3402.7657      8.2685706    
  24420000   301.6457      -586.00315      1250.0445      3361.487       8.9039012    
  24425000   295.03729     -589.6839       1335.7736      3384.4401      5.8571445    
  24430000   303.93822     -642.47642      1265.2621      3340.732       8.5473954    
  24435000   296.68672     -566.45325      1246.5261      3333.1732      10.543817    
  24440000   304.055       -590.92172      1317.4155      3445.4843      14.962959    
  24445000   296.66261     -576.10264      1256.3208      3333.1029      2.4368549    
  24450000   291.27976     -582.78463      1228.2148      3250.1791     -1.379636     
  24455000   298.69439     -578.00757      1287.154       3380.2002      6.9741378    
  24460000   303.7794      -599.83254      1241.7772      3358.4707     -2.0425142    
  24465000   308.8854      -621.29599      1262.9047      3403.7949      9.3096043    
  24470000   300.15625     -572.79827      1262.2795      3373.6075      3.340996     
  24475000   305.33664     -559.77251      1334.7025      3505.3816      5.3006402    
  24480000   300.38075     -536.09112      1267.1043      3417.147       0.090840201  
  24485000   298.78443     -560.86143      1278.8599      3389.8574     -4.043809     
  24490000   296.8037      -563.15038      1277.6695      3368.6655      10.478474    
  24495000   304.31295     -549.66146      1275.8579      3447.4937      9.8008841    
  24500000   293.1363      -525.3542       1353.3339      3449.3306      4.9431529    
  24505000   307.78397     -575.19734      1244.3454      3421.4847      16.963388    
  24510000   302.48799     -567.72164      1254.6984      3391.9545      18.072613    
  24515000   308.29258     -611.82972      1278.015       3423.0702      17.933127    
  24520000   294.12913     -602.30726      1254.7323      3282.6542      11.4955      
  24525000   302.1743      -578.97836      1276.1337      3399.3279      15.074543    
  24530000   301.96772     -559.85521      1256.8031      3397.2731      14.122197    
  24535000   298.22548     -572.11617      1321.64        3416.3843      14.286132    
  24540000   299.39262     -608.47574      1209.3644      3278.1862      9.4497815    
  24545000   292.73252     -600.1808       1242.8017      3260.3609     -3.5537066    
  24550000   308.91439     -610.0436       1282.4786      3434.8804      15.088604    
  24555000   302.89357     -613.43985      1270.0167      3365.1814      6.8326239    
  24560000   305.20467     -610.57403      1226.2034      3344.9008      0.24953284   
  24565000   287.49551     -580.85892      1258.8845      3248.9341      10.155873    
  24570000   296.37729     -591.60859      1257.8874      3316.612       10.126755    
  24575000   300.12207     -619.64208      1306.0909      3370.2695      11.900319    
  24580000   295.59552     -630.96415      1242.3721      3254.7502      2.6108035    
  24585000   300.37717     -570.86294      1246.0597      3361.2986      6.4011155    
  24590000   294.47226     -553.43675      1271.0336      3350.8945      13.557947    
  24595000   298.67243     -581.77495      1254.355       3343.4374     -2.6580916    
  24600000   298.57456     -536.31313      1321.5932      3455.2622     -6.7109053    
  24605000   295.45175     -573.68388      1279.5325      3347.9052     -1.6979568    
  24610000   300.51149     -571.07041      1216.7205      3332.9531      4.952732     
  24615000   305.7384      -576.22883      1279.632       3437.4474      1.7774968    
  24620000   305.3605      -574.14426      1306.5493      3463.07       -2.9798087    
  24625000   295.21285     -577.13806      1311.401       3374.1833      13.160298    
  24630000   304.61258     -604.72658      1250.9462      3370.1963      11.669877    
  24635000   291.71958     -607.02531      1266.9053      3268.5619      6.1660307    
  24640000   293.80669     -593.18236      1284.1309      3318.2944      10.611626    
  24645000   299.18297     -587.56192      1355.168       3443.0288     -8.6796979    
  24650000   307.00714     -578.92339      1295.2488      3461.7153      2.7924432    
  24655000   295.97614     -597.41251      1268.0015      3317.335      -0.53210997   
  24660000   309.64783     -595.11316      1282.4954      3456.3864      4.6918007    
  24665000   308.25652     -531.77243      1329.5898      3554.3797      1.892084     
  24670000   296.20242     -538.52716      1284.4571      3394.6994     -1.3114265    
  24675000   293.11974     -545.4224       1294.2068      3369.9872      2.9441671    
  24680000   303.0672      -568.09214      1300.7123      3442.7774      7.6908562    
  24685000   303.79365     -565.88486      1275.107       3425.8756      3.0968358    
  24690000   303.83553     -589.44452      1250.9615      3378.545       7.7071484    
  24695000   304.89818     -579.91426      1332.4336      3479.05       -8.0502491    
  24700000   301.46918     -556.63389      1290.2702      3429.5034     -6.0570428    
  24705000   292.10825     -568.84495      1340.6002      3383.9129     -5.502181     
  24710000   301.96066     -578.56543      1284.8028      3406.4994      10.863378    
  24715000   304.47328     -578.29327      1281.9966      3426.4344      9.7371434    
  24720000   295.58616     -579.28272      1288.1591      3352.1349      12.276947    
  24725000   303.24476     -517.31425      1276.0667      3470.4975      11.091476    
  24730000   299.06445     -535.62935      1266.2771      3405.0107      4.4232739    
  24735000   301.53697     -557.1523       1264.5173      3403.8383      12.286336    
  24740000   298.92697     -564.40624      1264.5102      3373.2374      3.3337492    
  24745000   294.06186     -572.91151      1291.559       3348.2752      15.830698    
  24750000   306.02447     -553.33587      1308.5924      3491.859       9.7932994    
  24755000   305.31323     -555.16847      1260.1561      3435.2298      12.091909    
  24760000   298.59218     -564.21787      1316.0666      3421.9885      6.9591608    
  24765000   292.01738     -548.26358      1294.0833      3357.1648     -0.076774246  
  24770000   305.59986     -544.38595      1288.6147      3477.0341      1.9255369    
  24775000   301.27796     -564.38161      1307.5377      3437.3132      9.610568     
  24780000   299.84595     -567.25608      1231.1756      3345.271       9.1884111    
  24785000   303.67152     -561.48238      1257.9872      3412.0662      12.589878    
  24790000   300.02291     -533.64139      1357.2221      3506.5146      1.0124123    
  24795000   303.67281     -558.31524      1283.9323      3441.19       -0.25361627   
  24800000   298.66445     -550.72448      1248.365       3368.4265      6.526286     
  24805000   295.33643     -575.12203      1283.2194      3349.1228      5.0553108    
  24810000   307.88894     -597.0327       1213.2762      3369.5189      18.506506    
  24815000   301.76252     -575.59002      1303.4373      3426.3375      0.73145655   
  24820000   305.16587     -607.63829      1269.0339      3390.32       -6.3522369    
  24825000   304.69488     -584.0141       1319.2954      3459.994       5.6216197    
  24830000   296.54311     -634.07561      1242.1354      3259.8759      7.3717516    
  24835000   301.64687     -599.02265      1240.3279      3338.7613      7.8636455    
  24840000   292.92763     -619.17667      1319.1118      3319.42        9.2983202    
  24845000   296.99179     -597.52619      1244.3182      3302.6203      12.140118    
  24850000   302.17456     -573.06884      1320.0839      3449.19        25.538474    
  24855000   305.3049      -586.51603      1256.3319      3399.9836      19.759338    
  24860000   304.43838     -602.70959      1309.0824      3428.7917     -5.8741571    
  24865000   302.57233     -592.13932      1319.2877      3432.8804      2.8154249    
  24870000   300.94097     -562.24163      1322.3506      3451.2526      4.743715     
  24875000   301.48695     -580.97603      1257.4643      3372.5143      13.189387    
  24880000   298.78424     -575.89447      1250.0198      3345.9825      7.9165483    
  24885000   295.36568     -565.81621      1296.7681      3372.2389     -3.1796015    
  24890000   301.18491     -573.76864      1261.0432      3380.5997      10.461959    
  24895000   295.02479     -565.77496      1237.3435      3309.8071      7.1783793    
  24900000   301.04262     -571.81941      1271.9464      3392.1796      23.437392    
  24905000   295.83982     -620.2848       1286.6261      3311.8682     -3.4956005    
  24910000   298.34655     -582.14382      1246.7507      3332.5501      11.925389    
  24915000   300.36139     -597.50358      1257.6154      3346.0726     -1.417365     
  24920000   303.76753     -590.35546      1295.3771      3421.4415      2.2156558    
  24925000   296.67632     -603.72928      1283.3282      3332.6062      10.297756    
  24930000   298.34811     -583.26496      1264.7041      3349.3963      5.0528455    
  24935000   292.929       -568.55581      1242.2489      3293.1901     -0.34947638   
  24940000   297.95986     -559.57348      1275.909       3380.8207      11.991954    
  24945000   299.46034     -533.84706      1335.7172      3479.7733      7.9992813    
  24950000   297.1023      -549.87794      1273.2248      3380.1633      14.490596    
  24955000   302.59529     -515.62331      1302.3255      3492.6395      2.1573847    
  24960000   307.40913     -516.19635      1267.2206      3500.0088      1.0300703    
  24965000   303.05495     -534.08885      1270.8213      3446.7802     -0.55047714   
  24970000   300.8259      -508.64419      1288.2931      3469.7636      5.2717542    
  24975000   300.70013     -547.10849      1296.2996      3438.181       4.7205781    
  24980000   301.30669     -587.14979      1244.9165      3352.1807     -2.2534671    
  24985000   299.39955     -555.98173      1320.3331      3441.711       3.8531904    
  24990000   301.72197     -545.22012      1241.3071      3394.2146      8.0027138    
  24995000   299.26999     -585.1204       1323.9929      3415.0734      9.825539     
  25000000   305.63851     -562.19064      1257.1119      3428.0722     -1.2137154    
  25005000   303.88448     -603.84034      1291.1535      3404.7789      9.4185623    
  25010000   306.99796     -606.34893      1247.9235      3386.8824      3.4261161    
Loop time of 10298.5 on 64 procs for 25000000 steps with 3001 atoms

Performance: 6292.166 ns/day, 0.004 hours/ns, 2427.533 timesteps/s
99.6% CPU use with 64 MPI tasks x 1 OpenMP threads

MPI task timing breakdown:
Section |  min time  |  avg time  |  max time  |%varavg| %total
---------------------------------------------------------------
Pair    | 78.918     | 129.73     | 458.96     | 895.2 |  1.26
Bond    | 46.117     | 52.932     | 94.389     | 212.8 |  0.51
Neigh   | 1676.1     | 1711.7     | 1756.3     |  47.1 | 16.62
Comm    | 7773       | 8216.2     | 8305.4     | 161.8 | 79.78
Output  | 16.606     | 16.644     | 16.7       |   0.5 |  0.16
Modify  | 75.535     | 86.34      | 151.29     | 256.4 |  0.84
Other   |            | 84.93      |            |       |  0.82

Nlocal:        46.8906 ave          99 max          24 min
Histogram: 8 14 19 11 4 1 0 2 2 3
Nghost:        3419.11 ave        3550 max        3301 min
Histogram: 4 4 3 9 17 10 6 8 1 2
Neighs:        313.281 ave        1197 max          92 min
Histogram: 27 24 4 1 1 0 0 1 2 4
FullNghs:      626.562 ave        2421 max         211 min
Histogram: 32 20 4 0 0 1 0 3 0 4

Total # of neighbors = 40100
Ave neighs/atom = 13.362213
Ave special neighs/atom = 3.5988004
Neighbor list builds = 2500000
Dangerous builds = 2499990
Total wall time: 2:51:42
