ITEM: TIMESTEP
0
ITEM: NUMBER OF ATOMS
3001
ITEM: BOX BOUNDS pp pp pp
0.0000000000000000e+00 1.5000000000000000e+02
0.0000000000000000e+00 1.5000000000000000e+02
0.0000000000000000e+00 1.5000000000000000e+02
ITEM: ATOMS type x y z
4 75 75 75
2 24.7998 2.77955 26.2433
1 29.4732 2.56866 26.6958
1 34.1466 2.35778 27.1482
1 38.82 2.14689 27.6007
1 43.4935 1.93601 28.0532
2 11.6355 2.50179 30.8178
1 14.2163 4.6386 27.5217
1 16.797 6.7754 24.2257
1 19.3777 8.91221 20.9296
1 21.9584 11.049 17.6336
2 28.8196 32.4703 30.6118
1 26.0932 28.9005 31.9949
1 23.3668 25.3307 33.378
1 20.6403 21.7609 34.7612
1 17.9139 18.1911 36.1443
2 4.14572 27.572 4.79412
1 2.58712 31.9304 5.60953
1 1.02852 36.2888 6.42495
1 149.47 40.6473 7.24036
1 147.911 45.0057 8.05578
2 26.2857 16.6916 21.2981
1 30.703 16.9233 22.8868
1 35.1203 17.155 24.4754
1 39.5376 17.3867 26.0641
1 43.9549 17.6185 27.6528
2 27.0302 7.59622 11.2997
1 31.5926 6.77493 12.0746
1 36.1549 5.95364 12.8495
1 40.7173 5.13235 13.6244
1 45.2796 4.31106 14.3993
2 14.7599 27.5481 8.40556
1 11.6199 24.0513 8.35588
1 8.47983 20.5544 8.3062
1 5.33981 17.0576 8.25651
1 2.19979 13.5608 8.20683
2 18.1026 32.6705 22.5811
1 18.49 28.0989 23.6014
1 18.8775 23.5274 24.6216
1 19.2649 18.9558 25.6418
1 19.6524 14.3843 26.6621
2 18.5511 13.436 2.17954
1 22.1678 11.2163 4.20011
1 25.7844 8.99662 6.22068
1 29.4011 6.77692 8.24126
1 33.0178 4.55723 10.2618
2 21.8128 17.6838 9.17506
1 26.0345 16.04 7.92381
1 30.2561 14.3962 6.67256
1 34.4777 12.7524 5.4213
1 38.6994 11.1086 4.17005
2 30.0078 12.2307 17.6562
1 26.361 9.99385 19.6023
1 22.7142 7.75698 21.5484
1 19.0674 5.52011 23.4945
1 15.4206 3.28325 25.4406
2 11.6404 0.94512 20.9984
1 12.0141 0.571636 25.6687
1 12.3877 0.198152 30.3389
1 12.7613 149.825 35.0091
1 13.135 149.451 39.6793
2 14.1533 18.6946 54.6171
1 14.5653 21.4865 50.8587
1 14.9773 24.2784 47.1003
1 15.3894 27.0703 43.3419
1 15.8014 29.8622 39.5835
2 16.7426 20.7443 70.2435
1 14.0974 23.5471 67.5534
1 11.4522 26.35 64.8632
1 8.80695 29.1529 62.1731
1 6.16175 31.9558 59.483
2 7.76372 1.06059 73.9835
1 12.3873 1.13041 73.1422
1 17.0108 1.20023 72.3008
1 21.6344 1.27005 71.4595
1 26.258 1.33987 70.6182
2 18.9043 32.5995 79.8538
1 20.5064 30.5281 75.951
1 22.1086 28.4567 72.0481
1 23.7107 26.3853 68.1452
1 25.3128 24.3139 64.2423
2 142.451 3.90699 40.4028
1 146.944 5.27921 40.5368
1 1.4373 6.65144 40.6709
1 5.93052 8.02366 40.8049
1 10.4237 9.39588 40.9389
2 2.09482 28.0443 44.443
1 6.72442 27.4776 43.8635
1 11.354 26.911 43.284
1 15.9836 26.3444 42.7046
1 20.6132 25.7778 42.1251
2 37.7932 143.933 104.577
1 36.483 147.643 102.006
1 35.1729 1.35357 99.4358
1 33.8628 5.06385 96.8653
1 32.5527 8.77413 94.2948
2 4.45965 25.1661 103.569
1 6.80432 21.1183 104.025
1 9.14899 17.0705 104.481
1 11.4937 13.0228 104.937
1 13.8383 8.97498 105.393
2 31.0029 20.3143 92.201
1 29.6304 24.7475 91.4577
1 28.2578 29.1807 90.7143
1 26.8853 33.614 89.971
1 25.5127 38.0472 89.2277
2 17.1859 30.4093 91.3258
1 17.3846 25.8234 90.3158
1 17.5832 21.2375 89.3058
1 17.7819 16.6516 88.2958
1 17.9805 12.0658 87.2858
2 146.646 13.7114 90.8192
1 149.18 9.77687 91.2517
1 1.71392 5.84231 91.6843
1 4.24811 1.90775 92.1169
1 6.7823 147.973 92.5495
2 10.7095 38.0586 84.7559
1 13.0446 37.7118 88.82
1 15.3797 37.365 92.8841
1 17.7149 37.0181 96.9482
1 20.05 36.6713 101.012
2 31.0803 25.5834 117.599
1 31.6505 30.2478 117.505
1 32.2208 34.9121 117.411
1 32.7911 39.5764 117.317
1 33.3613 44.2407 117.222
2 26.078 27.6905 124.602
1 29.622 25.2238 126.458
1 33.1661 22.7571 128.314
1 36.7102 20.2904 130.17
1 40.2542 17.8237 132.026
2 34.18 1.70153 123.848
1 31.1154 0.899283 127.32
1 28.0508 0.0970305 130.792
1 24.9862 149.295 134.264
1 21.9217 148.493 137.736
2 149.53 12.3642 133.827
1 2.71946 12.1213 137.271
1 5.90896 11.8784 140.714
1 9.09846 11.6355 144.158
1 12.288 11.3926 147.602
2 10.31 38.2303 118.452
1 14.5986 37.7581 116.588
1 18.8872 37.2859 114.724
1 23.1758 36.8137 112.86
1 27.4644 36.3415 110.996
2 0.155567 25.7676 142.603
1 4.85334 25.6684 142.708
1 9.55111 25.5693 142.814
1 14.2489 25.4701 142.919
1 18.9467 25.371 143.024
2 5.11765 4.62504 5.76411
1 7.54796 4.68646 1.74169
1 9.97827 4.74789 147.719
1 12.4086 4.80931 143.697
1 14.8389 4.87073 139.674
2 144.575 6.91018 123.136
1 147.689 4.21277 120.874
1 0.803327 1.51536 118.612
1 3.91752 148.818 116.351
1 7.03171 146.121 114.089
2 19.47 72.6984 31.6403
1 14.9672 73.7944 32.4234
1 10.4644 74.8904 33.2066
1 5.96157 75.9864 33.9898
1 1.45876 77.0825 34.773
2 9.07543 37.0282 8.00807
1 11.7726 40.8577 7.62047
1 14.4698 44.6872 7.23288
1 17.1671 48.5166 6.84529
1 19.8643 52.3461 6.4577
2 147.615 37.5826 23.5059
1 0.888266 40.4703 21.7634
1 4.16156 43.3581 20.0209
1 7.43486 46.2459 18.2785
1 10.7082 49.1337 16.536
2 12.6317 71.3812 29.6109
1 14.0424 70.7079 25.1785
1 15.4531 70.0346 20.746
1 16.8638 69.3612 16.3136
1 18.2745 68.6879 11.8811
2 19.6926 50.6412 147.569
1 19.4685 46.2494 149.228
1 19.2445 41.8576 0.887056
1 19.0204 37.4658 2.54601
1 18.7964 33.0741 4.20497
2 28.3677 52.5308 6.71574
1 27.9384 48.3815 8.88117
1 27.509 44.2322 11.0466
1 27.0797 40.0829 13.212
1 26.6504 35.9337 15.3775
2 18.7707 68.5592 13.5233
1 15.1172 69.9081 16.1543
1 11.4638 71.2571 18.7854
1 7.8103 72.6061 21.4164
1 4.15684 73.9551 24.0475
2 14.9564 63.8883 24.6786
1 18.8326 65.913 26.4007
1 22.7089 67.9377 28.1228
1 26.5851 69.9623 29.8448
1 30.4613 71.987 31.5669
2 7.06074 43.9442 7.29048
1 11.7157 43.3384 7.05797
1 16.3707 42.7326 6.82547
1 21.0257 42.1268 6.59296
1 25.6807 41.521 6.36046
2 9.2493 55.2453 64.855
1 6.76359 51.8197 62.8113
1 4.27788 48.3942 60.7676
1 1.79218 44.9686 58.7239
1 149.306 41.543 56.6802
2 3.49443 45.1378 46.7125
1 6.91617 47.1313 44.1812
1 10.3379 49.1249 41.6499
1 13.7596 51.1184 39.1186
1 17.1814 53.1119 36.5873
2 23.3002 56.9129 62.9778
1 26.3868 57.8927 66.3841
1 29.4734 58.8725 69.7905
1 32.5599 59.8523 73.1968
1 35.6465 60.8321 76.6031
2 33.1937 60.7166 56.2258
1 35.1041 56.6973 57.7377
1 37.0145 52.678 59.2496
1 38.9249 48.6587 60.7616
1 40.8352 44.6395 62.2735
2 14.4065 62.1515 60.0632
1 15.679 57.8252 58.7387
1 16.9515 53.499 57.4141
1 18.224 49.1727 56.0896
1 19.4965 44.8465 54.7651
2 17.8902 66.1607 41.0313
1 22.3523 67.6252 41.2182
1 26.8144 69.0897 41.4052
1 31.2765 70.5543 41.5921
1 35.7386 72.0188 41.779
2 9.70292 51.8192 47.8006
1 14.2286 52.4536 48.8987
1 18.7543 53.088 49.9968
1 23.28 53.7224 51.0949
1 27.8056 54.3568 52.193
2 17.0037 53.2924 85.5917
1 13.1131 53.4592 88.2233
1 9.22256 53.6259 90.855
1 5.332 53.7927 93.4867
1 1.44143 53.9594 96.1183
2 142.907 49.0488 90.4081
1 146.705 51.7881 90.8094
1 0.503036 54.5274 91.2107
1 4.30111 57.2666 91.6119
1 8.09919 60.0059 92.0132
2 39.9372 56.5471 87.5032
1 36.8693 52.9935 87.2803
1 33.8014 49.4399 87.0574
1 30.7334 45.8863 86.8346
1 27.6655 42.3327 86.6117
2 27.7055 33.6654 92.6699
1 29.0574 36.3093 89.0268
1 30.4093 38.9531 85.3837
1 31.7612 41.597 81.7405
1 33.113 44.2409 78.0974
2 15.4903 37.9857 111.991
1 15.2345 42.4818 110.646
1 14.9787 46.978 109.301
1 14.7229 51.4742 107.956
1 14.4671 55.9703 106.611
2 17.3505 64.8313 74.653
1 20.9844 62.5215 76.537
1 24.6183 60.2117 78.421
1 28.2522 57.9019 80.305
1 31.8862 55.5921 82.189
2 18.3643 56.6637 125.215
1 23.0531 56.4578 125.466
1 27.7418 56.2519 125.718
1 32.4305 56.046 125.97
1 37.1192 55.8401 126.222
2 23.6835 48.6091 123.191
1 22.7581 45.6607 119.65
1 21.8327 42.7123 116.108
1 20.9074 39.764 112.567
1 19.982 36.8156 109.026
2 18.5504 54.0207 123.231
1 21.6334 56.274 120.491
1 24.7164 58.5273 117.751
1 27.7994 60.7806 115.011
1 30.8824 63.0339 112.271
2 28.0312 49.9976 134.041
1 25.2488 46.6144 135.745
1 22.4664 43.2312 137.449
1 19.6841 39.8481 139.152
1 16.9017 36.4649 140.856
2 33.4622 49.4784 122.252
1 33.9976 48.1931 126.741
1 34.533 46.9079 131.23
1 35.0685 45.6227 135.719
1 35.6039 44.3374 140.208
2 31.4646 34.3598 136.593
1 33.4271 38.6304 136.563
1 35.3896 42.901 136.533
1 37.3521 47.1715 136.504
1 39.3146 51.4421 136.474
2 25.3126 73.2759 131.517
1 29.2899 71.6049 129.651
1 33.2671 69.9338 127.786
1 37.2443 68.2628 125.921
1 41.2216 66.5918 124.056
2 10.7497 67.7552 115.812
1 13.9624 64.5603 117.062
1 17.1751 61.3654 118.311
1 20.3878 58.1705 119.561
1 23.6004 54.9756 120.81
2 27.66 52.8155 112.667
1 28.9103 56.546 115.238
1 30.1607 60.2765 117.809
1 31.411 64.0071 120.38
1 32.6613 67.7376 122.951
2 17.0899 39.0891 148.04
1 17.2078 41.6422 144.095
1 17.3258 44.1953 140.151
1 17.4437 46.7484 136.207
1 17.5616 49.3015 132.262
2 28.8 89.7918 18.4363
1 30.3779 85.3662 18.5568
1 31.9558 80.9406 18.6773
1 33.5337 76.515 18.7978
1 35.1116 72.0894 18.9183
2 4.21035 100.059 2.9458
1 8.82858 100.343 2.12061
1 13.4468 100.628 1.29542
1 18.0651 100.912 0.470227
1 22.6833 101.197 149.645
2 7.12575 91.5643 15.8398
1 8.28658 87.0646 16.5432
1 9.44741 82.5648 17.2466
1 10.6082 78.0651 17.95
1 11.7691 73.5654 18.6534
2 146.152 106.739 36.4223
1 0.564918 107.933 35.3296
1 4.97764 109.126 34.237
1 9.39035 110.32 33.1444
1 13.8031 111.513 32.0518
2 24.8719 75.1532 10.1969
1 24.1523 79.68 11.2364
1 23.4327 84.2067 12.276
1 22.7132 88.7335 13.3155
1 21.9936 93.2602 14.3551
2 24.9236 89.4812 69.561
1 27.2264 92.9724 67.4166
1 29.5292 96.4637 65.2722
1 31.8319 99.955 63.1279
1 34.1347 103.446 60.9835
2 6.38616 94.192 62.115
1 3.26741 96.3272 59.3213
1 0.148656 98.4623 56.5277
1 147.03 100.597 53.734
1 143.911 102.733 50.9404
2 20.9971 87.7736 44.4409
1 25.0577 89.1595 46.3594
1 29.1183 90.5455 48.2779
1 33.1788 91.9315 50.1964
1 37.2394 93.3174 52.1149
2 30.8071 99.9853 71.5104
1 28.0042 103.406 73.1025
1 25.2012 106.826 74.6945
1 22.3983 110.246 76.2866
1 19.5953 113.667 77.8786
2 19.1292 86.2699 65.4991
1 18.0281 89.7739 68.4316
1 16.9271 93.2779 71.3642
1 15.826 96.7819 74.2967
1 14.725 100.286 77.2293
2 28.4747 101.552 53.208
1 31.9159 98.4632 52.3682
1 35.357 95.374 51.5283
1 38.7982 92.2849 50.6884
1 42.2393 89.1957 49.8485
2 11.5716 94.9314 52.1584
1 7.54687 95.5723 54.4995
1 3.52212 96.2133 56.8406
1 149.497 96.8542 59.1816
1 145.473 97.4952 61.5227
2 141.638 110.805 51.2837
1 146.099 109.935 50.086
1 0.55983 109.065 48.8882
1 5.02054 108.194 47.6904
1 9.48125 107.324 46.4927
2 2.10028 94.8245 70.5729
1 4.83718 96.1443 74.1587
1 7.57407 97.464 77.7445
1 10.311 98.7838 81.3302
1 13.0479 100.104 84.916
2 141.993 102.296 91.1025
1 146.053 100.536 89.518
1 0.112975 98.7766 87.9334
1 4.17296 97.0171 86.3489
1 8.23295 95.2576 84.7644
2 1.8376 107.746 113.695
1 5.63433 107.787 110.925
1 9.43106 107.828 108.155
1 13.2278 107.868 105.385
1 17.0245 107.909 102.615
2 15.7078 97.5048 106.431
1 18.3301 96.722 102.61
1 20.9523 95.9391 98.7886
1 23.5746 95.1563 94.9675
1 26.1969 94.3734 91.1464
2 12.3079 79.4387 120.925
1 12.1003 79.4784 116.23
1 11.8926 79.5181 111.535
1 11.685 79.5579 106.84
1 11.4773 79.5976 102.144
2 3.54791 82.0739 73.8452
1 7.30088 82.0802 76.6746
1 11.0539 82.0866 79.5039
1 14.8068 82.093 82.3332
1 18.5598 82.0993 85.1626
2 35.0487 91.3724 113.325
1 34.5067 91.9869 108.697
1 33.9646 92.6015 104.069
1 33.4225 93.2161 99.4412
1 32.8804 93.8307 94.8132
2 1.89494 75.3604 80.1374
1 6.1931 76.0549 78.3672
1 10.4913 76.7494 76.5971
1 14.7894 77.4439 74.8269
1 19.0876 78.1383 73.0568
2 9.63555 108.875 83.6236
1 14.3081 108.466 83.9246
1 18.9807 108.058 84.2255
1 23.6532 107.65 84.5265
1 28.3258 107.242 84.8274
2 27.5289 102.036 103.225
1 31.7242 100.001 103.813
1 35.9194 97.9654 104.402
1 40.1147 95.93 104.991
1 44.31 93.8945 105.58
2 15.1005 98.9086 86.2307
1 15.8355 99.9489 81.7066
1 16.5705 100.989 77.1825
1 17.3056 102.03 72.6585
1 18.0406 103.07 68.1344
2 25.0747 103.099 148.698
1 23.487 106.727 146.167
1 21.8992 110.355 143.637
1 20.3115 113.984 141.106
1 18.7237 117.612 138.575
2 22.4486 101.829 143.909
1 21.0134 101.42 139.453
1 19.5782 101.011 134.996
1 18.143 100.601 130.539
1 16.7078 100.192 126.082
2 24.684 107.747 122.098
1 28.4501 106.993 119.389
1 32.2161 106.239 116.68
1 35.9822 105.486 113.971
1 39.7482 104.732 111.262
2 24.7375 83.1723 8.42083
1 26.0486 84.7735 4.20099
1 27.3598 86.3747 149.981
1 28.671 87.9759 145.761
1 29.9821 89.5771 141.541
2 0.848079 87.9793 133.807
1 5.50934 87.6718 133.289
1 10.1706 87.3644 132.771
1 14.8319 87.0569 132.254
1 19.4931 86.7494 131.736
2 6.90111 115.666 6.65625
1 8.80876 113.257 3.10053
1 10.7164 110.847 149.545
1 12.6241 108.437 145.989
1 14.5317 106.027 142.433
2 16.0991 101.7 129.665
1 17.9902 97.6024 130.977
1 19.8812 93.5046 132.29
1 21.7723 89.4069 133.602
1 23.6633 85.3091 134.915
2 23.3316 80.6747 115.517
1 27.2735 83.2336 115.576
1 31.2153 85.7926 115.635
1 35.1572 88.3515 115.694
1 39.099 90.9105 115.753
2 8.80566 100.293 141.938
1 7.85528 100.509 137.34
1 6.9049 100.725 132.742
1 5.95453 100.941 128.145
1 5.00415 101.157 123.547
2 2.03291 97.2329 132.92
1 5.86113 98.0018 135.536
1 9.68934 98.7706 138.152
1 13.5176 99.5395 140.768
1 17.3458 100.308 143.384
2 21.7228 91.8889 122.531
1 21.5651 93.0314 127.087
1 21.4074 94.174 131.643
1 21.2497 95.3165 136.2
1 21.092 96.459 140.756
2 145.411 106.088 107.36
1 147.722 103.25 110.308
1 0.0327489 100.411 113.257
1 2.34361 97.5731 116.206
1 4.65448 94.7348 119.154
2 25.8799 97.0851 118.38
1 23.7151 95.2411 122.122
1 21.5502 93.3971 125.864
1 19.3853 91.5532 129.606
1 17.2204 89.7092 133.348
2 143.479 118.73 30.5851
1 147.087 117.846 33.4652
1 0.694173 116.962 36.3453
1 4.30163 116.078 39.2253
1 7.90908 115.194 42.1054
2 149.638 0.698325 30.6595
1 4.21422 149.641 30.8182
1 8.7909 148.583 30.977
1 13.3676 147.525 31.1357
1 17.9442 146.467 31.2944
2 146.131 135.758 27.1008
1 149.154 138.225 24.4811
1 2.17711 140.693 21.8614
1 5.20025 143.16 19.2417
1 8.2234 145.627 16.622
2 26.986 2.74193 15.155
1 28.201 148.283 14.2977
1 29.4159 143.825 13.4403
1 30.6309 139.366 12.583
1 31.8459 134.908 11.7257
2 24.0931 133.049 32.8544
1 21.136 132.087 29.3301
1 18.1788 131.125 25.8058
1 15.2216 130.164 22.2814
1 12.2645 129.202 18.7571
2 14.8754 147.613 14.2116
1 18.4998 144.621 14.2694
1 22.1242 141.629 14.3273
1 25.7486 138.638 14.3851
1 29.3731 135.646 14.4429
2 20.3712 119.427 11.8695
1 22.8894 123.246 12.9507
1 25.4077 127.064 14.0319
1 27.926 130.882 15.1131
1 30.4442 134.701 16.1943
2 31.8975 133.224 34.3269
1 27.5371 131.501 34.655
1 23.1766 129.778 34.9831
1 18.8162 128.055 35.3113
1 14.4557 126.332 35.6394
2 9.71324 135.602 6.89961
1 11.2554 136.491 11.2493
1 12.7975 137.381 15.599
1 14.3396 138.271 19.9488
1 15.8817 139.161 24.2985
2 2.93449 127.254 25.2354
1 2.03353 131.22 27.591
1 1.13257 135.187 29.9466
1 0.231619 139.153 32.3021
1 149.331 143.119 34.6577
2 24.7504 137.899 11.5116
1 27.7212 139.197 8.10882
1 30.692 140.495 4.70604
1 33.6628 141.794 1.30327
1 36.6336 143.092 147.9
2 17.4788 133.367 52.9837
1 21.9075 132.716 54.4162
1 26.3362 132.064 55.8488
1 30.7649 131.413 57.2813
1 35.1936 130.761 58.7139
2 7.38226 137.35 72.5216
1 12.0534 137.84 72.6961
1 16.7245 138.331 72.8706
1 21.3956 138.821 73.0451
1 26.0667 139.311 73.2196
2 7.3218 120.96 64.0021
1 9.77809 122.014 67.8679
1 12.2344 123.069 71.7337
1 14.6907 124.124 75.5994
1 17.1469 125.179 79.4652
2 149.95 126.143 43.3917
1 4.47255 127.291 43.9556
1 8.99497 128.44 44.5195
1 13.5174 129.589 45.0834
1 18.0398 130.738 45.6473
2 26.459 0.902957 41.817
1 26.7861 146.276 42.5744
1 27.1132 141.649 43.3318
1 27.4403 137.022 44.0892
1 27.7674 132.395 44.8466
2 6.10133 124.412 46.0616
1 7.58831 126.426 50.0392
1 9.07529 128.441 54.0168
1 10.5623 130.455 57.9944
1 12.0493 132.469 61.972
2 144.637 132.867 66.4441
1 148.161 135.335 68.3343
1 1.68607 137.804 70.2244
1 5.2108 140.272 72.1146
1 8.73553 142.741 74.0048
2 27.6567 144.705 64.9538
1 24.7119 142.58 61.9705
1 21.7671 140.454 58.9872
1 18.8224 138.328 56.0039
1 15.8776 136.203 53.0206
2 143.41 117.689 42.802
1 147.48 115.871 41.3129
1 1.55079 114.053 39.8237
1 5.62119 112.235 38.3346
1 9.69159 110.418 36.8454
2 146.324 144.456 73.0052
1 148.688 140.403 73.2733
1 1.05232 136.349 73.5415
1 3.4164 132.296 73.8096
1 5.78049 128.243 74.0777
2 33.3033 148.993 45.5675
1 33.6623 146.928 49.7743
1 34.0212 144.862 53.981
1 34.3802 142.797 58.1878
1 34.7392 140.732 62.3946
2 144.896 139.434 45.7064
1 149.286 138.083 44.7116
1 3.67625 136.731 43.7168
1 8.06651 135.38 42.722
1 12.4568 134.029 41.7273
2 38.9356 110.537 83.5724
1 34.9826 112.988 84.2479
1 31.0297 115.439 84.9234
1 27.0767 117.89 85.5989
1 23.1238 120.341 86.2744
2 7.85944 107.286 79.7303
1 7.65036 111.469 77.5981
1 7.44128 115.653 75.4659
1 7.23221 119.836 73.3338
1 7.02313 124.019 71.2016
2 16.3411 143.777 99.9914
1 20.9373 142.974 100.556
1 25.5335 142.17 101.121
1 30.1297 141.366 101.686
1 34.7259 140.563 102.251
2 6.07609 132.264 99.0198
1 10.7486 132.411 99.5057
1 15.4211 132.558 99.9915
1 20.0936 132.705 100.477
1 24.7661 132.852 100.963
2 24.432 138.373 88.2083
1 27.468 134.787 88.1037
1 30.504 131.201 87.9991
1 33.54 127.614 87.8946
1 36.576 124.028 87.79
2 145.322 129.122 77.4604
1 149.088 131.562 78.8563
1 2.855 134.003 80.2522
1 6.62154 136.443 81.6482
1 10.3881 138.883 83.0441
2 5.18655 133.574 126.577
1 7.67102 133.451 130.564
1 10.1555 133.327 134.552
1 12.64 133.204 138.54
1 15.1244 133.081 142.528
2 18.0598 131.566 133.421
1 22.5861 130.376 132.99
1 27.1125 129.186 132.558
1 31.6388 127.996 132.126
1 36.1652 126.806 131.695
2 15.7191 133.838 133.373
1 13.3927 137.893 132.891
1 11.0663 141.949 132.409
1 8.73996 146.004 131.926
1 6.41358 0.0593308 131.444
2 148.937 139.009 107.603
1 2.82371 138.488 110.194
1 6.71077 137.967 112.784
1 10.5978 137.446 115.374
1 14.4849 136.925 117.964
2 20.4587 137.463 129.682
1 19.1004 139.139 133.858
1 17.7421 140.816 138.033
1 16.3837 142.492 142.209
1 15.0254 144.168 146.385
2 34.8578 142.935 139.893
1 31.628 141.358 142.922
1 28.3983 139.781 145.95
1 25.1685 138.204 148.978
1 21.9387 136.626 2.00675
2 37.9365 140.429 120.055
1 37.5007 144.781 121.775
1 37.0649 149.133 123.496
1 36.6291 3.48467 125.217
1 36.1933 7.83663 126.937
2 13.4497 133.947 121.043
1 17.8937 132.544 120.434
1 22.3378 131.14 119.825
1 26.7818 129.736 119.217
1 31.2259 128.333 118.608
2 15.8988 109.428 138.618
1 18.0066 111.694 135.081
1 20.1145 113.96 131.544
1 22.2223 116.226 128.006
1 24.3302 118.492 124.469
2 16.3263 138.296 135.764
1 19.1447 136.155 138.856
1 21.9631 134.015 141.949
1 24.7815 131.875 145.042
1 27.5999 129.734 148.135
2 11.1713 124.324 134.995
1 9.30661 125.158 139.228
1 7.4419 125.992 143.461
1 5.57719 126.826 147.694
1 3.71248 127.66 1.92675
2 54.7407 25.1395 13.3152
1 57.8674 25.7256 16.7751
1 60.994 26.3117 20.2349
1 64.1206 26.8978 23.6948
1 67.2473 27.4839 27.1547
2 38.5017 15.5664 32.6544
1 43.161 14.9642 32.7916
1 47.8202 14.362 32.9289
1 52.4795 13.7599 33.0661
1 57.1387 13.1577 33.2033
2 44.2008 149.709 12.2606
1 47.1079 1.00645 15.7182
1 50.015 2.30375 19.1759
1 52.9221 3.60106 22.6336
1 55.8293 4.89836 26.0913
2 47.9676 24.9641 12.9839
1 49.0589 23.6521 17.3631
1 50.1501 22.3402 21.7424
1 51.2413 21.0283 26.1217
1 52.3325 19.7163 30.501
2 38.75 28.3924 37.345
1 43.3881 28.0665 36.6584
1 48.0263 27.7406 35.9718
1 52.6644 27.4147 35.2852
1 57.3026 27.0888 34.5986
2 45.7426 4.41374 30.9596
1 45.1078 6.3933 26.7443
1 44.473 8.37285 22.5291
1 43.8383 10.3524 18.3138
1 43.2035 12.332 14.0985
2 53.2251 27.2035 7.07241
1 50.3402 28.4263 10.5755
1 47.4552 29.6492 14.0786
1 44.5703 30.8721 17.5817
1 41.6853 32.0949 21.0848
2 37.267 28.2982 19.0246
1 41.8836 28.7507 18.2682
1 46.5002 29.2032 17.5118
1 51.1168 29.6556 16.7553
1 55.7334 30.1081 15.9989
2 46.6587 32.5254 3.80041
1 50.9974 33.1441 2.10251
1 55.3361 33.7627 0.404615
1 59.6748 34.3814 148.707
1 64.0135 35.0001 147.009
2 61.1585 42.0455 50.0505
1 62.9954 38.6997 47.3079
1 64.8322 35.354 44.5653
1 66.6691 32.0083 41.8226
1 68.5059 28.6625 39.08
2 64.1099 28.8881 67.1396
1 67.6393 30.8051 64.6986
1 71.1687 32.7222 62.2577
1 74.6981 34.6393 59.8167
1 78.2275 36.5564 57.3758
2 45.919 21.4746 41.6586
1 50.529 22.3721 41.8367
1 55.1391 23.2696 42.0148
1 59.7492 24.1671 42.1929
1 64.3593 25.0645 42.371
2 63.6105 29.5001 55.1358
1 65.1893 26.3051 58.2
1 66.7682 23.1101 61.2642
1 68.3471 19.9151 64.3284
1 69.9259 16.7201 67.3926
2 45.8337 32.8045 69.9131
1 46.5551 28.8011 72.2674
1 47.2764 24.7977 74.6216
1 47.9978 20.7943 76.9758
1 48.7191 16.7909 79.33
2 51.9793 6.58216 50.7216
1 56.6378 6.80009 51.3054
1 61.2963 7.01802 51.8893
1 65.9548 7.23595 52.4731
1 70.6133 7.45389 53.057
2 66.2775 37.0531 79.0162
1 69.8076 35.754 81.8343
1 73.3376 34.455 84.6524
1 76.8676 33.1559 87.4704
1 80.3976 31.8568 90.2885
2 53.6427 26.0483 117.083
1 55.3546 22.3941 114.674
1 57.0666 18.7399 112.264
1 58.7786 15.0858 109.854
1 60.4906 11.4316 107.445
2 39.1644 16.8847 100.257
1 42.0111 20.601 99.8376
1 44.8578 24.3172 99.418
1 47.7044 28.0335 98.9984
1 50.5511 31.7497 98.5788
2 49.9154 31.7956 99.3694
1 52.987 28.8642 101.385
1 56.0585 25.9328 103.401
1 59.1301 23.0015 105.416
1 62.2017 20.0701 107.432
2 82.4511 11.6409 104.48
1 78.4871 9.55423 105.902
1 74.523 7.46756 107.324
1 70.5589 5.3809 108.746
1 66.5948 3.29423 110.168
2 68.5517 22.4204 91.5015
1 65.9242 25.0466 94.3806
1 63.2967 27.6728 97.2597
1 60.6692 30.2991 100.139
1 58.0417 32.9253 103.018
2 46.5113 11.2088 84.7774
1 49.406 14.4426 86.581
1 52.3007 17.6765 88.3846
1 55.1954 20.9103 90.1883
1 58.0901 24.1441 91.9919
2 67.8437 27.9739 91.6854
1 65.2357 30.8396 89.0254
1 62.6277 33.7054 86.3654
1 60.0197 36.5711 83.7053
1 57.4117 39.4369 81.0453
2 30.2143 35.8566 74.6731
1 33.8638 35.3966 77.5989
1 37.5132 34.9367 80.5246
1 41.1627 34.4767 83.4503
1 44.8122 34.0167 86.3761
2 38.2671 27.6349 100.173
1 42.9236 27.3951 99.5815
1 47.58 27.1553 98.9899
1 52.2365 26.9155 98.3983
1 56.8929 26.6757 97.8067
2 41.3084 2.00629 100.975
1 45.8358 2.84908 100.036
1 50.3632 3.69186 99.0963
1 54.8906 4.53464 98.1569
1 59.4179 5.37743 97.2175
2 58.4871 17.0961 131.167
1 59.5574 19.2749 127.143
1 60.6278 21.4537 123.118
1 61.6982 23.6326 119.093
1 62.7685 25.8114 115.069
2 31.6829 27.5022 135.376
1 36.3694 27.1781 135.229
1 41.0559 26.854 135.082
1 45.7424 26.5299 134.934
1 50.4289 26.2058 134.787
2 59.5026 9.98068 109.366
1 61.609 11.8347 113.136
1 63.7153 13.6888 116.906
1 65.8217 15.5428 120.677
1 67.9281 17.3968 124.447
2 59.0191 4.27316 117.981
1 63.1341 4.66149 120.219
1 67.2491 5.04983 122.456
1 71.364 5.43816 124.694
1 75.479 5.82649 126.931
2 30.395 29.53 124.099
1 34.5429 28.348 125.966
1 38.6909 27.1659 127.834
1 42.8388 25.9839 129.701
1 46.9867 24.8018 131.569
2 53.9547 21.3351 122.627
1 58.5808 20.6626 123.113
1 63.207 19.9901 123.599
1 67.8332 19.3176 124.085
1 72.4593 18.6451 124.571
2 31.2848 13.0686 127.93
1 35.7015 14.5838 127.394
1 40.1182 16.0991 126.859
1 44.5348 17.6143 126.323
1 48.9515 19.1295 125.787
2 38.5948 31.0064 118.512
1 40.1555 27.4748 115.832
1 41.7162 23.9432 113.152
1 43.2769 20.4116 110.472
1 44.8376 16.8799 107.792
2 46.5545 41.0174 137.958
1 46.6703 36.7829 139.995
1 46.786 32.5485 142.031
1 46.9018 28.314 144.067
1 47.0175 24.0795 146.103
2 71.1061 1.65911 1.50344
1 71.7389 2.11896 146.869
1 72.3718 2.57882 142.235
1 73.0046 3.03868 137.6
1 73.6375 3.49853 132.966
2 55.7212 76.1065 2.144
1 60.2199 74.7478 2.2245
1 64.7185 73.3892 2.30501
1 69.2171 72.0306 2.38552
1 73.7157 70.6719 2.46602
2 47.5407 52.3281 16.1646
1 44.8835 49.771 19.0784
1 42.2263 47.2138 21.9921
1 39.5691 44.6566 24.9059
1 36.9118 42.0994 27.8197
2 56.4066 72.3291 22.7389
1 55.2922 68.9777 25.8398
1 54.1778 65.6262 28.9407
1 53.0633 62.2747 32.0416
1 51.9489 58.9232 35.1425
2 58.6596 49.1752 15.3546
1 55.9989 52.7236 13.7989
1 53.3383 56.2719 12.2433
1 50.6776 59.8203 10.6876
1 48.0169 63.3686 9.13199
2 35.7253 53.6044 21.2989
1 38.949 50.2394 20.6867
1 42.1727 46.8745 20.0744
1 45.3964 43.5096 19.4621
1 48.6202 40.1447 18.8498
2 51.2811 70.1189 14.1596
1 55.6213 71.1653 12.6906
1 59.9615 72.2117 11.2215
1 64.3016 73.258 9.75247
1 68.6418 74.3044 8.28342
2 35.3349 52.3379 15.7238
1 39.8206 53.3456 16.7002
1 44.3062 54.3534 17.6767
1 48.7918 55.3612 18.6531
1 53.2775 56.3689 19.6296
2 52.5384 44.205 2.2855
1 49.4705 41.2554 4.28001
1 46.4026 38.3058 6.27452
1 43.3347 35.3563 8.26904
1 40.2668 32.4067 10.2635
2 40.0239 52.5463 6.05863
1 44.1508 52.459 8.30615
1 48.2776 52.3717 10.5537
1 52.4045 52.2844 12.8012
1 56.5314 52.1971 15.0487
2 46.2727 59.7382 1.68243
1 50.698 58.5359 2.71251
1 55.1233 57.3335 3.74259
1 59.5486 56.1311 4.77267
1 63.9739 54.9287 5.80276
2 50.4839 65.4917 18.4649
1 51.9646 61.2657 17.0372
1 53.4454 57.0397 15.6096
1 54.9262 52.8137 14.182
1 56.4069 48.5876 12.7543
2 65.7141 59.6364 49.9654
1 65.345 55.1619 51.3554
1 64.9759 50.6874 52.7455
1 64.6068 46.2128 54.1356
1 64.2377 41.7383 55.5256
2 49.7542 39.4256 60.4435
1 53.2548 38.9251 57.3475
1 56.7554 38.4247 54.2515
1 60.2561 37.9243 51.1555
1 63.7567 37.4239 48.0595
2 39.1972 43.7798 38.1917
1 42.6574 45.7964 40.6515
1 46.1176 47.813 43.1112
1 49.5777 49.8296 45.571
1 53.0379 51.8462 48.0308
2 62.6465 48.5741 60.5009
1 66.2121 50.5054 58.1246
1 69.7776 52.4368 55.7484
1 73.3432 54.3682 53.3722
1 76.9087 56.2996 50.9959
2 33.1145 71.5128 79.8207
1 36.3681 71.9042 76.4516
1 39.6217 72.2957 73.0825
1 42.8754 72.6871 69.7134
1 46.129 73.0785 66.3443
2 37.2507 61.2159 43.3329
1 41.0374 59.9719 40.8422
1 44.8241 58.7278 38.3516
1 48.6108 57.4838 35.8609
1 52.3975 56.2397 33.3703
2 61.6862 64.324 50.2963
1 62.8582 59.7725 50.3201
1 64.0302 55.2211 50.3439
1 65.2022 50.6696 50.3677
1 66.3741 46.1181 50.3916
2 40.4748 58.3031 39.1062
1 43.4971 55.0393 40.6239
1 46.5194 51.7756 42.1416
1 49.5417 48.5118 43.6594
1 52.5641 45.2481 45.1771
2 58.3791 34.7823 70.3536
1 55.5458 36.3766 73.7478
1 52.7124 37.9709 77.142
1 49.8791 39.5652 80.5362
1 47.0458 41.1596 83.9303
2 65.8337 74.3064 106.445
1 70.207 73.0076 107.575
1 74.5803 71.7087 108.705
1 78.9537 70.4099 109.835
1 83.327 69.1111 110.965
2 52.9076 50.3523 76.7076
1 55.6796 48.2895 79.8937
1 58.4516 46.2268 83.0798
1 61.2236 44.164 86.2658
1 63.9956 42.1012 89.4519
2 63.8914 44.748 91.6035
1 65.8213 44.5642 95.885
1 67.7512 44.3803 100.167
1 69.6811 44.1965 104.448
1 71.611 44.0126 108.73
2 68.2977 59.6233 120.654
1 68.6675 60.1371 115.997
1 69.0373 60.651 111.34
1 69.4072 61.1649 106.682
1 69.777 61.6787 102.025
2 59.2361 47.2192 102.695
1 61.1775 43.1223 101.456
1 63.1189 39.0254 100.216
1 65.0603 34.9285 98.9766
1 67.0017 30.8317 97.737
2 41.9883 53.2025 70.9654
1 42.4154 53.2131 75.646
1 42.8425 53.2237 80.3265
1 43.2696 53.2343 85.007
1 43.6966 53.2448 89.6876
2 54.23 65.4161 107.744
1 58.9296 65.3628 107.713
1 63.6292 65.3096 107.681
1 68.3288 65.2563 107.65
1 73.0283 65.203 107.619
2 64.5934 50.7074 144.825
1 68.4306 53.3999 145.165
1 72.2679 56.0924 145.505
1 76.1051 58.7849 145.846
1 79.9424 61.4774 146.186
2 34.4368 44.394 127.375
1 38.8848 44.4727 125.859
1 43.3328 44.5513 124.343
1 47.7808 44.63 122.827
1 52.2288 44.7087 121.31
2 62.9318 53.1767 125.855
1 61.5445 57.2132 123.887
1 60.1572 61.2496 121.919
1 58.7698 65.286 119.951
1 57.3825 69.3224 117.983
2 42.8184 58.4315 123.008
1 42.9959 61.7101 119.645
1 43.1734 64.9888 116.282
1 43.3509 68.2674 112.919
1 43.5284 71.5461 109.556
2 64.4991 65.5942 119.429
1 60.6371 67.9422 118.14
1 56.7752 70.2902 116.851
1 52.9132 72.6382 115.562
1 49.0512 74.9861 114.273
2 54.7388 54.3786 143.83
1 59.0856 56.0074 143.093
1 63.4324 57.6362 142.357
1 67.7791 59.2651 141.62
1 72.1259 60.8939 140.883
2 69.2132 45.2509 117.819
1 65.7378 44.0354 120.74
1 62.2623 42.8199 123.662
1 58.7869 41.6044 126.583
1 55.3114 40.3889 129.504
2 38.3406 44.3613 142.466
1 42.4254 45.6038 144.43
1 46.5102 46.8463 146.395
1 50.595 48.0889 148.36
1 54.6798 49.3314 0.32467
2 55.1715 72.9267 140.161
1 53.4611 73.0641 144.536
1 51.7507 73.2016 148.912
1 50.0402 73.339 3.28732
1 48.3298 73.4765 7.66289
2 64.7199 36.8683 127.686
1 67.4402 38.0278 124.033
1 70.1606 39.1873 120.38
1 72.8809 40.3468 116.727
1 75.6013 41.5063 113.074
2 63.307 45.7096 147.687
1 65.48 45.1711 143.554
1 67.653 44.6326 139.422
1 69.8261 44.0941 135.289
1 71.9991 43.5555 131.157
2 34.8597 88.0382 37.5231
1 39.2135 86.8282 36.2308
1 43.5673 85.6182 34.9384
1 47.9211 84.4082 33.6461
1 52.2749 83.1982 32.3537
2 77.09 87.4117 13.9468
1 75.9961 83.676 11.3127
1 74.9021 79.9404 8.67859
1 73.8082 76.2048 6.0445
1 72.7142 72.4692 3.41042
2 29.5027 82.1854 35.8709
1 34.143 81.8893 36.5563
1 38.7833 81.5932 37.2418
1 43.4236 81.2971 37.9273
1 48.064 81.0011 38.6128
2 67.6588 86.865 10.9108
1 69.1255 90.6005 8.46448
1 70.5923 94.3361 6.0182
1 72.059 98.0716 3.57191
1 73.5258 101.807 1.12563
2 39.3721 111.334 143.582
1 39.9889 110.948 148.225
1 40.6057 110.561 2.86875
1 41.2226 110.175 7.51203
1 41.8394 109.788 12.1553
2 78.422 99.0683 29.9298
1 75.297 96.7967 32.6064
1 72.172 94.5252 35.2831
1 69.047 92.2537 37.9597
1 65.922 89.9822 40.6364
2 44.9373 105.506 6.62815
1 48.202 102.371 5.36191
1 51.4666 99.2357 4.09568
1 54.7312 96.1006 2.82945
1 57.9959 92.9655 1.56322
2 59.2564 96.6578 146.128
1 63.2778 96.1081 148.498
1 67.2991 95.5584 0.867916
1 71.3204 95.0088 3.2379
1 75.3417 94.4591 5.60789
2 40.0722 69.9861 57.7703
1 40.1996 73.6753 60.6796
1 40.3271 77.3644 63.5889
1 40.4545 81.0536 66.4982
1 40.582 84.7427 69.4075
2 68.4567 106.284 55.364
1 68.1639 108.87 51.4504
1 67.8712 111.456 47.5367
1 67.5785 114.042 43.6231
1 67.2857 116.629 39.7094
2 47.6968 84.5296 38.2482
1 48.8984 82.6288 42.3753
1 50.1 80.7281 46.5024
1 51.3016 78.8273 50.6296
1 52.5032 76.9265 54.7567
2 64.1925 118.436 57.0987
1 65.2821 114.317 55.1145
1 66.3718 110.198 53.1304
1 67.4614 106.079 51.1462
1 68.5511 101.96 49.162
2 37.3634 81.9269 66.4593
1 37.7836 86.558 65.7764
1 38.2038 91.1891 65.0935
1 38.624 95.8202 64.4105
1 39.0442 100.451 63.7276
2 63.5581 85.1448 35.6825
1 67.0973 86.292 38.5544
1 70.6365 87.4392 41.4264
1 74.1757 88.5865 44.2983
1 77.7149 89.7337 47.1703
2 62.034 117.062 44.8018
1 65.2561 113.857 43.6019
1 68.4781 110.653 42.4021
1 71.7001 107.448 41.2022
1 74.9221 104.244 40.0024
2 41.8287 96.6874 44.955
1 43.8048 92.7864 46.6777
1 45.7809 88.8855 48.4005
1 47.7569 84.9846 50.1232
1 49.733 81.0836 51.8459
2 57.1006 112.009 119.146
1 58.8625 112.163 114.792