ITEM: TIMESTEP
0
ITEM: NUMBER OF ATOMS
5501
ITEM: BOX BOUNDS pp pp pp
0.0000000000000000e+00 3.0000000000000000e+02
0.0000000000000000e+00 3.0000000000000000e+02
0.0000000000000000e+00 3.0000000000000000e+02
ITEM: ATOMS type x y z
4 150 150 150
2 94.9488 106.13 126.188
1 92.4631 102.704 124.144
1 89.9773 99.2784 122.1
1 87.4916 95.8528 120.057
1 85.0059 92.4273 118.013
2 132.875 144.402 82.3676
1 136.297 146.396 79.8363
1 139.718 148.389 77.305
1 143.14 150.383 74.7737
1 146.562 152.376 72.2424
2 79.2912 147.931 101.394
1 82.3778 148.911 104.8
1 85.4644 149.89 108.207
1 88.551 150.87 111.613
1 91.6375 151.85 115.019
2 105.326 85.3963 99.1244
1 107.236 81.3771 100.636
1 109.147 77.3578 102.148
1 111.057 73.3385 103.66
1 112.967 69.3192 105.172
2 76.7329 132.047 138.417
1 78.0054 127.72 137.092
1 79.2779 123.394 135.768
1 80.5504 119.068 134.443
1 81.8229 114.742 133.119
2 131.052 122.758 127.372
1 135.514 124.223 127.559
1 139.976 125.687 127.745
1 144.438 127.152 127.932
1 148.9 128.616 128.119
2 82.7456 80.5066 97.0295
1 87.2713 81.141 98.1276
1 91.797 81.7754 99.2257
1 96.3227 82.4098 100.324
1 100.848 83.0442 101.422
2 115.292 113.271 99.1463
1 116.259 117.742 98.0692
1 117.226 122.214 96.9921
1 118.193 126.685 95.9151
1 119.16 131.157 94.838
2 129.941 105.686 100.943
1 132.967 103.499 98.0889
1 135.994 101.312 95.2349
1 139.021 99.1243 92.381
1 142.047 96.9369 89.5271
2 101.478 108.152 104.194
1 99.9226 104.241 106.286
1 98.3668 100.331 108.378
1 96.811 96.4201 110.47
1 95.2552 92.5094 112.562
2 85.8196 128.103 84.2841
1 87.6447 123.895 83.2585
1 89.4698 119.687 82.2329
1 91.295 115.479 81.2073
1 93.1201 111.271 80.1817
2 69.9512 116.683 94.1701
1 74.5564 117.521 94.5955
1 79.1616 118.358 95.0209
1 83.7668 119.195 95.4464
1 88.372 120.033 95.8718
2 66.6871 112.274 81.0673
1 71.3578 111.781 81.2461
1 76.0285 111.289 81.4249
1 80.6992 110.796 81.6038
1 85.3699 110.304 81.7826
2 125.057 110.031 134.906
1 128.406 111.728 132.079
1 131.755 113.425 129.252
1 135.105 115.122 126.424
1 138.454 116.819 123.597
2 101.306 94.0349 102.147
1 105.713 93.095 100.811
1 110.12 92.155 99.4754
1 114.527 91.2151 98.1394
1 118.934 90.2751 96.8035
2 91.2725 149.667 103.884
1 90.8628 147.351 99.8152
1 90.4531 145.035 95.746
1 90.0434 142.719 91.6769
1 89.6337 140.402 87.6077
2 125.192 118.909 110.594
1 123.155 120.861 114.353
1 121.118 122.813 118.111
1 119.08 124.765 121.87
1 117.043 126.717 125.629
2 122.059 83.7191 100.45
1 122.44 86.5406 104.189
1 122.82 89.362 107.929
1 123.201 92.1835 111.668
1 123.581 95.005 115.408
2 83.792 109.42 143.883
1 85.1221 105.385 141.873
1 86.4522 101.35 139.863
1 87.7822 97.3151 137.853
1 89.1123 93.2801 135.843
2 126.821 148.915 107.695
1 127.999 144.771 105.818
1 129.178 140.626 103.941
1 130.356 136.482 102.063
1 131.535 132.337 100.186
2 85.0323 76.9819 141.052
1 88.5216 76.5911 144.176
1 92.0108 76.2002 147.301
1 95.5001 75.8094 150.425
1 98.9893 75.4186 153.55
2 75.967 123.415 116.443
1 80.6524 123.77 116.546
1 85.3379 124.125 116.65
1 90.0234 124.48 116.753
1 94.7088 124.834 116.857
2 128.004 133.494 96.3708
1 128.171 132.383 91.807
1 128.338 131.272 87.2433
1 128.505 130.161 82.6795
1 128.672 129.05 78.1158
2 122.772 78.7505 103.189
1 123.893 78.0271 98.6824
1 125.015 77.3038 94.1759
1 126.137 76.5804 89.6694
1 127.258 75.857 85.1629
2 139.059 122.942 136.703
1 141.918 125.189 133.726
1 144.778 127.437 130.748
1 147.637 129.684 127.771
1 150.496 131.932 124.794
2 109.092 147.391 155.683
1 111.857 147.344 151.883
1 114.622 147.296 148.082
1 117.387 147.248 144.282
1 120.152 147.2 140.482
2 121.608 114.711 99.242
1 119.39 118.293 97.1582
1 117.173 121.875 95.0744
1 114.955 125.457 92.9906
1 112.738 129.038 90.9067
2 95.8792 130.73 142.64
1 100.176 132.301 143.715
1 104.473 133.872 144.79
1 108.77 135.444 145.866
1 113.068 137.015 146.941
2 131.518 109.316 115.304
1 135.675 109.835 117.434
1 139.832 110.354 119.565
1 143.989 110.873 121.696
1 148.146 111.392 123.827
2 108.126 89.2363 84.5958
1 109.641 85.095 86.2227
1 111.155 80.9536 87.8495
1 112.669 76.8123 89.4763
1 114.183 72.671 91.1031
2 105.867 134.179 137.132
1 108.941 130.928 135.691
1 112.014 127.678 134.25
1 115.088 124.428 132.809
1 118.162 121.177 131.368
2 128.079 143.717 91.5856
1 131.52 145.464 88.9036
1 134.961 147.212 86.2215
1 138.403 148.959 83.5395
1 141.844 150.706 80.8574
2 115.788 98.1766 96.6312
1 120.469 97.7584 96.6868
1 125.15 97.3402 96.7424
1 129.831 96.922 96.798
1 134.512 96.5038 96.8536
2 102.09 121.89 77.109
1 98.167 119.374 76.498
1 94.2445 116.858 75.8871
1 90.3219 114.342 75.2761
1 86.3993 111.826 74.6651
2 94.9611 115.846 90.51
1 98.7351 117.539 88.2783
1 102.509 119.232 86.0466
1 106.283 120.925 83.8149
1 110.057 122.619 81.5832
2 83.3061 139.812 99.8555
1 84.8849 143.034 96.8204
1 86.4638 146.257 93.7854
1 88.0426 149.48 90.7503
1 89.6214 152.703 87.7153
2 102.403 99.6646 153.826
1 99.7559 101.561 150.437
1 97.1086 103.457 147.048
1 94.4612 105.353 143.659
1 91.8139 107.249 140.27
2 99.6084 133.679 130.712
1 95.78 131.089 131.563
1 91.9515 128.499 132.414
1 88.123 125.909 133.265
1 84.2945 123.319 134.116
2 121.495 125.112 100.775
1 120.401 127.233 96.7257
1 119.306 129.353 92.6767
1 118.212 131.474 88.6277
1 117.117 133.595 84.5787
2 86.9102 87.1907 80.7292
1 85.195 91.3726 82.0177
1 83.4798 95.5544 83.3062
1 81.7647 99.7363 84.5947
1 80.0495 103.918 85.8832
2 115.799 141.767 110.607
1 117.812 137.747 111.979
1 119.824 133.728 113.352
1 121.837 129.708 114.724
1 123.849 125.689 116.096
2 138.412 111.97 140.443
1 142.29 109.846 138.85
1 146.169 107.722 137.258
1 150.047 105.598 135.665
1 153.926 103.474 134.073
2 121.876 115.412 90.4234
1 121.639 114.359 85.849
1 121.403 113.306 81.2745
1 121.166 112.253 76.7001
1 120.929 111.2 72.1257
2 88.4167 91.1616 97.5515
1 91.1471 94.8445 98.5865
1 93.8775 98.5274 99.6216
1 96.6078 102.21 100.657
1 99.3382 105.893 101.692
2 92.8886 134.868 103.186
1 95.2987 138.903 103.154
1 97.7089 142.938 103.123
1 100.119 146.973 103.091
1 102.529 151.007 103.059
2 123.695 126.483 76.2051
1 123.486 126.927 80.8794
1 123.278 127.372 85.5537
1 123.069 127.816 90.2279
1 122.86 128.261 94.9022
2 135.842 102.734 123.007
1 132.991 100.502 120.011
1 130.139 98.2696 117.015
1 127.288 96.0376 114.019
1 124.436 93.8056 111.022
2 67.9958 85.7734 115.339
1 72.2165 83.7124 115.505
1 76.4373 81.6514 115.671
1 80.658 79.5904 115.837
1 84.8788 77.5295 116.003
2 113.673 101.945 111.469
1 118.35 102.343 111.22
1 123.026 102.741 110.972
1 127.703 103.139 110.723
1 132.379 103.537 110.474
2 131.076 139.806 84.3652
1 130.6 136.07 81.5539
1 130.123 132.333 78.7426
1 129.647 128.597 75.9313
1 129.171 124.861 73.12
2 132.398 97.6175 136.821
1 137.083 97.8638 136.543
1 141.768 98.1101 136.264
1 146.453 98.3564 135.986
1 151.139 98.6026 135.707
2 98.7821 87.9802 72.9453
1 99.7833 85.9884 77.083
1 100.784 83.9966 81.2207
1 101.786 82.0048 85.3584
1 102.787 80.013 89.496
2 77.0065 101.697 117.316
1 81.6802 101.804 117.8
1 86.354 101.911 118.284
1 91.0278 102.018 118.768
1 95.7016 102.125 119.252
2 102.151 82.9675 75.5579
1 103.703 86.1819 78.6152
1 105.256 89.3962 81.6726
1 106.809 92.6105 84.7299
1 108.362 95.8248 87.7872
2 110.081 83.7119 97.7367
1 114.777 83.5424 97.6329
1 119.473 83.3729 97.5291
1 124.169 83.2033 97.4252
1 128.865 83.0338 97.3214
2 87.0603 113.848 89.2206
1 89.2155 115.79 85.5231
1 91.3707 117.733 81.8255
1 93.5259 119.675 78.1279
1 95.6811 121.617 74.4303
2 113.875 105.534 85.3433
1 118.165 105.092 87.2109
1 122.455 104.649 89.0786
1 126.745 104.207 90.9463
1 131.036 103.764 92.8139
2 136.231 123.186 119.773
1 137.631 126.703 122.559
1 139.03 130.221 125.344
1 140.43 133.739 128.129
1 141.829 137.256 130.915
2 125.64 91.9687 153.59
1 123.958 95.8832 151.606
1 122.276 99.7977 149.622
1 120.595 103.712 147.637
1 118.913 107.627 145.653
2 102.756 140.744 125.139
1 102.285 142.417 120.772
1 101.814 144.09 116.405
1 101.344 145.763 112.038
1 100.873 147.436 107.671
2 129.047 125.313 111.705
1 125.283 126.044 114.423
1 121.519 126.776 117.142
1 117.756 127.507 119.86
1 113.992 128.238 122.578
2 88.3919 82.2706 95.4446
1 93.0531 82.5138 95.9965
1 97.7142 82.757 96.5484
1 102.375 83.0002 97.1003
1 107.037 83.2433 97.6521
2 114.727 98.3992 89.546
1 118.114 101.301 91.0289
1 121.5 104.203 92.5118
1 124.887 107.105 93.9946
1 128.274 110.007 95.4775
2 84.8618 130.519 123.159
1 89.308 129.303 124.078
1 93.7543 128.088 124.997
1 98.2005 126.873 125.916
1 102.647 125.657 126.834
2 89.7078 66.089 105.36
1 88.5477 70.6436 105.349
1 87.3877 75.1982 105.339
1 86.2277 79.7527 105.328
1 85.0677 84.3073 105.318
2 136.072 109.995 82.7488
1 133.204 109.379 79.0767
1 130.336 108.763 75.4046
1 127.468 108.146 71.7325
1 124.6 107.53 68.0604
2 128.261 82.663 122.054
1 132.279 82.3405 124.472
1 136.296 82.018 126.889
1 140.314 81.6955 129.307
1 144.332 81.3731 131.724
2 126.172 128.743 82.1054
1 127.308 130.391 86.3575
1 128.445 132.04 90.6096
1 129.582 133.688 94.8617
1 130.719 135.336 99.1138
2 112.185 137.105 80.7112
1 109.4 138.075 84.3711
1 106.616 139.046 88.0311
1 103.831 140.016 91.691
1 101.047 140.986 95.3509
2 94.135 136.816 78.4537
1 94.3507 132.25 79.5455
1 94.5664 127.684 80.6373
1 94.7821 123.117 81.729
1 94.9978 118.551 82.8208
2 114.934 104.683 103.684
1 119.096 106.224 102.138
1 123.259 107.765 100.592
1 127.421 109.305 99.0455
1 131.583 110.846 97.4992
2 81.724 83.5228 155.396
1 80.8391 86.4615 151.837
1 79.9542 89.4001 148.277
1 79.0692 92.3388 144.717
1 78.1843 95.2775 141.158
2 121.138 94.0127 147.923
1 125.009 91.3583 147.677
1 128.88 88.704 147.431
1 132.751 86.0496 147.184
1 136.622 83.3953 146.938
2 97.2732 144.02 82.0427
1 101.681 144.906 80.6741
1 106.089 145.792 79.3056
1 110.498 146.678 77.937
1 114.906 147.564 76.5684
2 137.045 79.9276 148.327
1 137.733 79.1302 143.747
1 138.42 78.3328 139.166
1 139.108 77.5354 134.586
1 139.795 76.738 130.005
2 84.9697 142.644 86.5806
1 82.9988 138.511 85.521
1 81.0278 134.378 84.4614
1 79.0569 130.245 83.4017
1 77.0859 126.111 82.3421
2 138.228 112.99 95.8145
1 134.773 113.671 98.9277
1 131.318 114.351 102.041
1 127.863 115.032 105.154
1 124.409 115.712 108.267
2 81.8613 120.414 126.531
1 83.3002 116.165 125.13
1 84.7392 111.916 123.729
1 86.1782 107.667 122.327
1 87.6172 103.418 120.926
2 83.3775 118.171 129.368
1 88.0747 118.109 129.517
1 92.7719 118.048 129.667
1 97.4692 117.986 129.816
1 102.166 117.925 129.965
2 97.2657 79.6327 88.4024
1 101.966 79.6327 88.4
1 106.666 79.6328 88.3977
1 111.366 79.6329 88.3953
1 116.066 79.6329 88.393
2 101.383 80.9849 92.908
1 100.57 85.1506 90.8887
1 99.7584 89.3163 88.8695
1 98.9463 93.482 86.8503
1 98.1342 97.6477 84.8311
2 71.6326 139.211 148.116
1 75.7504 141.469 148.314
1 79.8681 143.726 148.512
1 83.9859 145.983 148.709
1 88.1037 148.24 148.907
2 87.9967 135.92 119.905
1 91.6033 138.327 121.718
1 95.2098 140.734 123.532
1 98.8163 143.142 125.345
1 102.423 145.549 127.158
2 120.648 77.8107 99.7277
1 121.132 81.1896 96.4967
1 121.615 84.5685 93.2657
1 122.098 87.9474 90.0347
1 122.582 91.3263 86.8037
2 150.848 102.046 100.722
1 147.143 100.796 103.329
1 143.437 99.5452 105.936
1 139.732 98.2948 108.543
1 136.026 97.0444 111.15
2 114.041 88.9217 121.948
1 115.481 89.6552 117.534
1 116.921 90.3887 113.121
1 118.361 91.1222 108.707
1 119.801 91.8557 104.294
2 137.823 91.3408 80.7702
1 141.991 89.5876 82.0534
1 146.159 87.8344 83.3367
1 150.326 86.0813 84.6199
1 154.494 84.3281 85.9031
2 70.2413 123.66 90.3886
1 74.8265 122.665 90.6629
1 79.4117 121.669 90.9372
1 83.9968 120.673 91.2115
1 88.582 119.678 91.4858
2 89.9522 126.947 111.158
1 88.5869 130.895 113.311
1 87.2217 134.844 115.465
1 85.8564 138.792 117.618
1 84.4912 142.74 119.771
2 98.8664 98.584 116.655
1 100.236 94.0893 116.547
1 101.606 89.5946 116.438
1 102.976 85.0999 116.33
1 104.345 80.6052 116.222
2 97.2576 98.8441 145.914
1 101.953 99.0441 145.891
1 106.649 99.2441 145.869
1 111.345 99.4441 145.847
1 116.04 99.6442 145.824
2 85.9775 122.942 91.251
1 86.6084 127.201 93.1355
1 87.2393 131.46 95.0201
1 87.8703 135.719 96.9047
1 88.5012 139.978 98.7893
2 84.8146 136.365 100.135
1 88.5572 133.944 98.6452
1 92.2997 131.522 97.1553
1 96.0423 129.101 95.6655
1 99.7848 126.679 94.1756
2 127.984 92.6837 116.792
1 131.034 96.2576 116.914
1 134.084 99.8314 117.036
1 137.134 103.405 117.159
1 140.184 106.979 117.281
2 92.7873 84.643 124.168
1 93.3766 85.2049 128.797
1 93.966 85.7668 133.426
1 94.5553 86.3288 138.055
1 95.1446 86.8907 142.684
2 148.132 140.745 117.453
1 144.452 142.488 115.107
1 140.771 144.232 112.76
1 137.091 145.976 110.414
1 133.411 147.72 108.068
2 117.499 110.023 112.463
1 112.922 110.519 113.409
1 108.345 111.014 114.356
1 103.768 111.51 115.302
1 99.1915 112.005 116.249
2 71.0384 78.9643 74.9825
1 75.4557 77.4105 75.3868
1 79.873 75.8568 75.791
1 84.2903 74.3031 76.1953
1 88.7076 72.7494 76.5995
2 84.8539 141.326 97.806
1 83.1998 140.298 102.083
1 81.5457 139.27 106.361
1 79.8917 138.241 110.638
1 78.2376 137.213 114.916
2 91.0408 131.507 129.801
1 95.5258 131.926 131.143
1 100.011 132.346 132.484
1 104.496 132.765 133.825
1 108.981 133.184 135.166
2 114.448 117.641 128.155
1 115.119 119.063 132.584
1 115.789 120.485 137.013
1 116.46 121.907 141.442
1 117.13 123.328 145.872
2 74.9322 82.6541 101.293
1 79.4689 82.023 102.347
1 84.0056 81.3919 103.401
1 88.5422 80.7608 104.454
1 93.0789 80.1297 105.508
2 96.5207 124.495 119.094
1 97.3999 124.819 114.489
1 98.279 125.142 109.883
1 99.1581 125.465 105.277
1 100.037 125.789 100.672
2 76.8058 85.2714 81.1431
1 78.866 81.1042 80.4502
1 80.9262 76.937 79.7573
1 82.9864 72.7698 79.0644
1 85.0466 68.6026 78.3716
2 155.45 87.8486 108.597
1 150.809 88.409 109.08
1 146.168 88.9695 109.564
1 141.526 89.5299 110.047
1 136.885 90.0903 110.53
2 90.8126 111.98 98.9856
1 94.6838 113.072 101.417
1 98.555 114.164 103.848
1 102.426 115.256 106.28
1 106.297 116.348 108.711
2 148.771 96.9162 109.233
1 145.256 98.8688 106.799
1 141.742 100.821 104.365
1 138.227 102.774 101.931
1 134.712 104.727 99.4974
2 109.581 128.795 121.333
1 112.154 128.17 125.216
1 114.728 127.544 129.099
1 117.301 126.918 132.982
1 119.874 126.292 136.865
2 110.87 85.0681 90.8869
1 115.533 85.3805 91.3847
1 120.196 85.693 91.8825
1 124.859 86.0054 92.3803
1 129.522 86.3179 92.878
2 141.58 124.156 90.61
1 144.54 121.756 87.8579
1 147.499 119.357 85.1058
1 150.459 116.958 82.3537
1 153.418 114.559 79.6017
2 132.796 72.5704 95.2129
1 129.99 74.339 91.8831
1 127.184 76.1075 88.5534
1 124.377 77.876 85.2237
1 121.571 79.6445 81.8939
2 103.104 138.767 86.5704
1 107.493 138.696 84.89
1 111.881 138.626 83.2095
1 116.27 138.555 81.5291
1 120.659 138.484 79.8487
2 134.385 68.5502 122.069
1 137.268 71.8703 123.728
1 140.151 75.1904 125.388
1 143.035 78.5105 127.047
1 145.918 81.8306 128.707
2 70.86 124.329 138.726
1 75.5018 123.902 139.327
1 80.1436 123.475 139.929
1 84.7854 123.048 140.53
1 89.4272 122.621 141.131
2 74.4682 130.888 145.422
1 77.7213 134.161 144.529
1 80.9744 137.433 143.636
1 84.2276 140.706 142.743
1 87.4807 143.979 141.85
2 85.1141 141.596 105.547
1 89.4838 143.324 105.635
1 93.8535 145.053 105.722
1 98.2231 146.782 105.809
1 102.593 148.51 105.896
2 79.709 114.109 88.6159
1 84.2902 113.217 88.063
1 88.8714 112.324 87.5101
1 93.4527 111.432 86.9571
1 98.0339 110.539 86.4042
2 71.0228 134.702 124.357
1 74.6553 134.697 121.375
1 78.2879 134.692 118.392
1 81.9205 134.687 115.41
1 85.553 134.682 112.428
2 111.017 124.433 76.0219
1 115.22 123.97 78.0754
1 119.422 123.507 80.1289
1 123.624 123.044 82.1824
1 127.826 122.581 84.2359
2 70.8279 134.051 104.02
1 74.0535 131.649 106.453
1 77.2791 129.247 108.886
1 80.5047 126.846 111.318
1 83.7303 124.444 113.751
2 92.0858 96.1755 128.053
1 87.4794 96.4599 128.942
1 82.873 96.7442 129.831
1 78.2666 97.0285 130.72
1 73.6602 97.3129 131.608
2 89.2893 89.1854 91.3086
1 90.1195 89.925 95.8752
1 90.9496 90.6646 100.442
1 91.7798 91.4043 105.008
1 92.61 92.1439 109.575
2 111 83.1041 90.0275
1 114.982 84.7556 91.8997
1 118.965 86.4071 93.772
1 122.947 88.0586 95.6442
1 126.929 89.71 97.5164
2 150.836 115.084 132.984
1 149.921 112.84 128.957
1 149.007 110.595 124.93
1 148.093 108.351 120.903
1 147.178 106.106 116.876
2 82.6202 151.59 121.218
1 87.1571 150.544 121.861
1 91.6939 149.499 122.505
1 96.2308 148.453 123.148
1 100.768 147.408 123.792
2 130.981 142.349 120.512
1 129.811 137.816 120.923
1 128.642 133.282 121.334
1 127.472 128.748 121.745
1 126.303 124.215 122.155
2 122.683 88.7221 90.3235
1 123.113 88.2029 94.9749
1 123.543 87.6837 99.6263
1 123.973 87.1645 104.278
1 124.403 86.6453 108.929
2 115.278 126.942 140.951
1 119.916 127.136 141.686
1 124.554 127.33 142.421
1 129.192 127.525 143.156
1 133.83 127.719 143.892
2 116.122 90.8017 70.6426
1 118.427 90.3844 74.7172
1 120.732 89.9672 78.7919
1 123.037 89.55 82.8666
1 125.342 89.1327 86.9412
2 155.049 130.759 215.242
1 151.158 130.926 217.874
1 147.268 131.092 220.505
1 143.377 131.259 223.137
1 139.487 131.426 225.769
2 120.116 107.492 151.339
1 123.914 110.232 151.741
1 127.712 112.971 152.142
1 131.511 115.71 152.543
1 135.309 118.449 152.945
2 141.764 103.561 198.564
1 138.696 100.007 198.341
1 135.628 96.4537 198.118
1 132.56 92.9001 197.895
1 129.492 89.3465 197.672
2 146.877 141.421 190.991
1 148.228 144.065 187.348
1 149.58 146.709 183.705
1 150.932 149.353 180.062
1 152.284 151.996 176.419
2 116.567 92.8617 212.772
1 116.312 97.3578 211.427
1 116.056 101.854 210.082
1 115.8 106.35 208.737
1 115.544 110.846 207.392
2 141.07 114.075 155.884
1 144.704 111.765 157.768
1 148.338 109.455 159.652
1 151.971 107.145 161.536
1 155.605 104.835 163.42
2 87.4414 126.348 174.388
1 85.832 127.487 170.121
1 84.2226 128.626 165.855
1 82.6131 129.765 161.589
1 81.0037 130.904 157.322
2 124.576 118.198 158.719
1 129.014 119.712 158.399
1 133.452 121.227 158.08
1 137.889 122.741 157.76
1 142.327 124.256 157.441
2 93.4367 132.031 201.8
1 98.0893 131.641 201.259
1 102.742 131.252 200.718
1 107.394 130.862 200.178
1 112.047 130.473 199.637
2 108.978 120.215 199.979
1 113.655 119.883 199.661
1 118.333 119.551 199.343
1 123.01 119.219 199.025
1 127.688 118.887 198.707
2 102.12 81.0991 173.439
1 106.147 78.7263 173.937
1 110.173 76.3536 174.436
1 114.199 73.9808 174.934
1 118.226 71.6081 175.433
2 138.732 81.0181 197.34
1 138.724 84.8534 194.623
1 138.715 88.6888 191.906
1 138.707 92.5241 189.19
1 138.699 96.3594 186.473
2 138.612 87.0015 187.602
1 135.339 90.3707 187.433
1 132.067 93.7399 187.264
1 128.794 97.1092 187.095
1 125.521 100.478 186.926
2 126.373 133.875 194.561
1 130.765 135.062 195.74
1 135.157 136.25 196.919
1 139.549 137.437 198.098
1 143.941 138.624 199.277
2 120.308 90.2123 176.711
1 120.083 94.7648 175.564
1 119.858 99.3172 174.418
1 119.633 103.87 173.272
1 119.407 108.422 172.125
2 127.507 139.413 190.331
1 122.84 139.701 190.806
1 118.173 139.989 191.282
1 113.506 140.277 191.758
1 108.839 140.565 192.233
2 77.001 124.465 158.433
1 76.252 126.996 162.322
1 75.503 129.527 166.211
1 74.7541 132.058 170.099
1 74.0051 134.59 173.988
2 116.451 119.53 159.662
1 112.626 121.985 160.86
1 108.801 124.44 162.057
1 104.977 126.895 163.255
1 101.152 129.35 164.453
2 135.714 107.117 183.734
1 133.386 104.025 181.067
1 131.059 100.933 178.401
1 128.731 97.8407 175.734
1 126.404 94.7485 173.067
2 135.012 85.142 194.286
1 138.63 82.5959 195.871
1 142.249 80.0498 197.456
1 145.868 77.5038 199.041
1 149.486 74.9577 200.627
2 98.3405 112.789 193.518
1 102.781 111.35 192.964
1 107.221 109.912 192.411
1 111.661 108.474 191.858
1 116.101 107.035 191.304
2 146.551 73.9655 179.633
1 148.037 78.2165 180.978
1 149.523 82.4676 182.324
1 151.009 86.7186 183.67
1 152.495 90.9697 185.015
2 96.4365 113.024 157.74
1 100.923 113.489 159.062
1 105.409 113.953 160.384
1 109.896 114.418 161.705
1 114.382 114.882 163.027
2 104.352 103.104 203.347
1 109.021 102.635 203.091
1 113.691 102.166 202.834
1 118.36 101.697 202.577
1 123.03 101.228 202.32
2 131.342 137.217 196.646
1 131.559 141.254 194.249
1 131.775 145.29 191.851
1 131.992 149.327 189.453
1 132.208 153.363 187.056
2 96.1669 119.077 181.832
1 96.4998 118.394 186.47
1 96.8327 117.712 191.108
1 97.1656 117.03 195.747
1 97.4986 116.348 200.385
2 141.46 97.9214 164.791
1 139.879 100.297 168.526
1 138.297 102.673 172.26
1 136.715 105.049 175.994
1 135.133 107.424 179.728
2 144.558 88.4201 200.804
1 141.382 91.7051 199.702
1 138.207 94.9901 198.599
1 135.032 98.2751 197.496
1 131.856 101.56 196.394
2 133.504 118.838 176.765
1 138.128 119.109 175.966
1 142.751 119.38 175.167
1 147.375 119.651 174.367
1 151.998 119.922 173.568
2 120.224 87.5107 194.829
1 117.671 89.3049 198.344
1 115.118 91.0991 201.859
1 112.565 92.8933 205.373
1 110.012 94.6874 208.888
2 99.9268 95.6382 207.312
1 104.046 96.6976 205.313
1 108.166 97.7571 203.314
1 112.286 98.8165 201.315
1 116.405 99.876 199.316
2 108.253 101.921 190.957
1 112.484 100.432 189.554
1 116.716 98.9432 188.152
1 120.948 97.4545 186.75
1 125.18 95.9657 185.348
2 107.874 133.435 188.081
1 103.795 133.481 190.416
1 99.7164 133.527 192.751
1 95.6377 133.573 195.086
1 91.559 133.62 197.421
2 90.4359 118.873 218.655
1 93.9512 118.552 215.552
1 97.4664 118.231 212.449
1 100.982 117.91 209.346
1 104.497 117.589 206.242
2 149.856 137.143 179.11
1 146.947 136.397 182.725
1 144.037 135.651 186.34
1 141.128 134.905 189.955
1 138.218 134.159 193.57
2 105.707 115.35 200.687
1 107.62 118.629 203.459
1 109.533 121.908 206.23
1 111.446 125.187 209.001
1 113.359 128.466 211.772
2 101.14 117.36 213.117
1 105.765 117.63 212.325
1 110.39 117.901 211.533
1 115.015 118.172 210.742
1 119.639 118.442 209.95
2 143.55 121.397 177.342
1 140.834 117.711 176.279
1 138.119 114.025 175.216
1 135.403 110.34 174.153
1 132.688 106.654 173.09
2 103.079 73.8814 196.471
1 103.065 74.4892 201.131
1 103.051 75.097 205.792
1 103.037 75.7048 210.452
1 103.023 76.3126 215.113
2 144.405 126.299 220.897
1 141.419 129.468 219.127
1 138.432 132.636 217.357
1 135.446 135.805 215.587
1 132.46 138.974 213.817
2 119.616 114.403 210.976
1 120.701 110.976 214.003
1 121.786 107.548 217.031
1 122.871 104.121 220.058
1 123.956 100.694 223.086
2 118.426 93.1079 160.317
1 122.863 92.8922 161.851
1 127.301 92.6765 163.385
1 131.738 92.4608 164.918
1 136.176 92.2451 166.452
2 146.145 120.698 199.747
1 141.704 119.259 199.204
1 137.262 117.82 198.662
1 132.821 116.381 198.119
1 128.38 114.942 197.577
2 113.714 116.687 222.382
1 117.612 119.267 221.888
1 121.51 121.846 221.395
1 125.408 124.426 220.902
1 129.306 127.005 220.408
2 77.831 93.2023 209.478
1 79.37 90.0404 212.596
1 80.909 86.8784 215.714
1 82.448 83.7165 218.833
1 83.987 80.5545 221.951
2 101.292 107.697 193.255
1 97.5897 109.992 191.489
1 93.8872 112.286 189.724
1 90.1847 114.58 187.958
1 86.4823 116.875 186.193
2 75.0443 92.8123 177.264
1 79.5966 92.4414 178.373
1 84.149 92.0705 179.481
1 88.7013 91.6996 180.59
1 93.2537 91.3288 181.698
2 93.8578 104.181 165.716
1 98.5578 104.181 165.715
1 103.258 104.181 165.714
1 107.958 104.181 165.714
1 112.658 104.181 165.713
2 138.331 77.3335 214.671
1 142.852 77.4562 215.953
1 147.372 77.5788 217.235
1 151.892 77.7015 218.516
1 156.412 77.8241 219.798
2 83.185 96.2198 164.487
1 87.8841 96.2287 164.396
1 92.5832 96.2375 164.306
1 97.2823 96.2464 164.215
1 101.981 96.2553 164.125
2 131.797 105.99 154.51
1 134.712 107.348 157.938
1 137.628 108.705 161.365
1 140.543 110.063 164.793
1 143.458 111.421 168.221
2 98.9507 143.901 202.08
1 103.609 144.418 202.433
1 108.267 144.934 202.786
1 112.925 145.45 203.139
1 117.583 145.966 203.492
2 95.8705 142.532 199.368
1 94.0228 139.449 196.339
1 92.1751 136.365 193.311
1 90.3274 133.282 190.283
1 88.4797 130.199 187.255
2 130.498 139.788 225.791
1 128.624 143.995 224.851
1 126.751 148.202 223.912
1 124.877 152.408 222.972
1 123.003 156.615 222.033
2 108.197 104.042 149.611
1 110.355 106.989 152.568
1 112.513 109.937 155.525
1 114.671 112.884 158.482
1 116.83 115.832 161.439
2 124.85 128.801 149.087
1 121.346 128.512 152.207
1 117.842 128.224 155.326
1 114.339 127.935 158.446
1 110.835 127.646 161.566
2 124.686 104.317 182.892
1 123.633 103.236 178.441
1 122.58 102.155 173.99
1 121.527 101.074 169.539
1 120.474 99.9934 165.088
2 89.546 130.939 181.495
1 89.7624 126.458 182.898
1 89.9787 121.978 184.301
1 90.195 117.498 185.704
1 90.4113 113.017 187.107
2 77.4942 95.096 220.747
1 81.0227 97.8326 219.28
1 84.5511 100.569 217.814
1 88.0796 103.306 216.347
1 91.608 106.043 214.881
2 146.344 105.119 197.556
1 145.752 109.653 196.468
1 145.161 114.187 195.38
1 144.569 118.721 194.292
1 143.978 123.255 193.204
2 145.179 143.131 176.557
1 141.904 141.72 179.619
1 138.629 140.31 182.681
1 135.354 138.899 185.744
1 132.08 137.489 188.806
2 88.5516 74.5936 215.718
1 86.765 77.1707 219.218
1 84.9783 79.7479 222.719
1 83.1916 82.325 226.22
1 81.4049 84.9022 229.721
2 69.2074 85.6546 169.66
1 72.9607 83.2484 168.172
1 76.7139 80.8423 166.684
1 80.4672 78.4362 165.196
1 84.2204 76.0301 163.709
2 105.732 130.624 147.95
1 102.675 132.918 150.685
1 99.6183 135.212 153.421
1 96.5615 137.506 156.157
1 93.5046 139.799 158.892
2 100.331 127.849 195.951
1 102.746 131.563 194.38
1 105.161 135.277 192.809
1 107.576 138.99 191.239
1 109.991 142.704 189.668
2 115.964 78.6639 173.956
1 120.664 78.6779 174.026
1 125.363 78.6919 174.096
1 130.063 78.7058 174.166
1 134.762 78.7198 174.236
2 89.9805 114.595 158.761
1 90.1801 113.48 163.323
1 90.3797 112.365 167.884
1 90.5793 111.25 172.446
1 90.7789 110.135 177.007
2 71.608 68.14 192.83
1 73.7056 72.3277 193.221
1 75.8033 76.5154 193.612
1 77.901 80.703 194.004
1 79.9987 84.8907 194.395
2 83.4418 121.051 217.599
1 87.8838 120.123 216.375
1 92.3258 119.195 215.151
1 96.7677 118.267 213.927
1 101.21 117.339 212.703
2 140.398 128.695 215.491
1 141.526 124.164 214.956
1 142.653 119.633 214.422
1 143.78 115.101 213.887
1 144.908 110.57 213.352
2 119.743 144.749 155.738
1 118.936 140.32 157.087
1 118.129 135.89 158.435
1 117.321 131.461 159.784
1 116.514 127.031 161.132
2 128.565 118.259 153.552
1 127.278 121.135 157.039
1 125.991 124.011 160.527
1 124.703 126.888 164.014
1 123.416 129.764 167.501
2 127.316 95.3914 189.273
1 130.793 92.2631 189.734
1 134.271 89.1349 190.194
1 137.748 86.0067 190.655
1 141.225 82.8784 191.115
2 75.5889 150.112 207.379
1 78.1926 146.22 207.783
1 80.7962 142.328 208.187
1 83.3999 138.436 208.59
1 86.0036 134.544 208.994
2 75.5731 78.6292 171.521
1 80.2668 78.6381 171.766
1 84.9604 78.6471 172.011
1 89.654 78.6561 172.256
1 94.3476 78.665 172.501
2 132.017 90.6366 203.475
1 136.7 90.6403 203.868
1 141.384 90.644 204.261
1 146.068 90.6477 204.654
1 150.751 90.6514 205.047
2 131.775 110.14 201.649
1 135.938 111.365 203.455
1 140.1 112.59 205.261
1 144.263 113.815 207.068
1 148.425 115.041 208.874
2 132.959 106.712 161.909
1 137.132 107.829 163.761
1 141.305 108.947 165.612
1 145.478 110.064 167.464
1 149.651 111.181 169.315
2 85.1246 127.738 179.406
1 83.9014 124.929 175.842
1 82.6782 122.12 172.278
1 81.455 119.311 168.713
1 80.2317 116.502 165.149
2 118.352 134.61 190.79
1 123.042 134.894 190.662
1 127.732 135.178 190.534
1 132.421 135.463 190.406
1 137.111 135.747 190.278
2 141.499 89.392 157.897
1 139.023 91.7657 154.684
1 136.547 94.1394 151.471
1 134.071 96.5132 148.258
1 131.594 98.8869 145.045
2 82.5206 87.7912 168.373
1 87.217 87.6101 168.338
1 91.9133 87.4289 168.304
1 96.6097 87.2478 168.269
1 101.306 87.0667 168.235
2 112.703 88.8369 202.515
1 112.906 86.0587 198.729
1 113.11 83.2805 194.944
1 113.313 80.5023 191.158
1 113.516 77.7241 187.373
2 128.614 91.1482 224.434
1 126.11 88.2325 221.729
1 123.605 85.3168 219.024
1 121.101 82.4011 216.32
1 118.596 79.4853 213.615
2 140.193 88.5676 178.144
1 141.481 92.5013 180.371
1 142.768 96.435 182.598
1 144.055 100.369 184.824
1 145.342 104.302 187.051
2 85.2938 84.7538 164.237
1 89.4425 86.8945 164.781
1 93.5913 89.0352 165.324
1 97.7401 91.176 165.867
1 101.889 93.3167 166.41
2 127.331 127.453 197.896
1 125.889 130.642 194.759
1 124.447 133.831 191.622
1 123.005 137.02 188.485
1 121.564 140.208 185.347
2 87.8284 142.386 183.105
1 86.9899 145.337 179.545
1 86.1515 148.288 175.984
1 85.3131 151.239 172.424
1 84.4746 154.19 168.863
2 148.229 91.7015 155.168
1 144.784 91.1938 158.324
1 141.339 90.6861 161.481
1 137.895 90.1784 164.638
1 134.45 89.6707 167.795
2 126.075 98.7153 197.68
1 125.742 95.2326 194.541
1 125.409 91.7499 191.403
1 125.076 88.2673 188.264
1 124.743 84.7846 185.126
2 100.114 134.768 186.812
1 99.0315 133.304 182.48
1 97.9492 131.84 178.147
1 96.8668 130.375 173.814
1 95.7845 128.911 169.481
2 106.495 84.7645 201.555
1 108.357 88.7304 199.854
1 110.219 92.6964 198.152
1 112.08 96.6623 196.45
1 113.942 100.628 194.749
2 126.595 139.68 216.51
1 128.881 135.864 218.025
1 131.167 132.047 219.54
1 133.454 128.231 221.056
1 135.74 124.414 222.571
2 125.494 147.692 210.121
1 124.368 143.97 207.48
1 123.243 140.248 204.84
1 122.117 136.527 202.2
1 120.991 132.805 199.559
2 99.5144 133.668 208.615
1 98.3037 136.851 205.376
1 97.0929 140.034 202.137
1 95.8821 143.217 198.897
1 94.6713 146.4 195.658
2 137.858 73.0996 150.56
1 133.36 74.4135 150.921
1 128.862 75.7275 151.283
1 124.363 77.0414 151.644
1 119.865 78.3553 152.006
2 95.5801 112.46 199.162
1 100.227 113.061 199.531
1 104.874 113.661 199.901
1 109.521 114.261 200.27
1 114.167 114.862 200.64
2 130.76 106.861 166.684
1 129.236 109.247 162.932
1 127.712 111.633 159.18
1 126.189 114.018 155.428
1 124.665 116.404 151.677
2 90.2542 85.4455 186.591
1 91.1509 89.1957 189.278
1 92.0475 92.9459 191.966
1 92.9442 96.6961 194.653
1 93.8409 100.446 197.34
2 96.7979 80.6062 178.626
1 101.482 80.314 178.371
1 106.166 80.0219 178.116
1 110.85 79.7298 177.861
1 115.534 79.4376 177.606
2 136.478 93.3161 161.712
1 133.184 93.7729 165.033
1 129.889 94.2297 168.354
1 126.594 94.6865 171.674
1 123.3 95.1433 174.995
2 98.7878 101.157 154.134
1 103.361 102.24 154.093
1 107.934 103.323 154.053
1 112.508 104.406 154.012
1 117.081 105.49 153.971
2 94.2372 139.224 192.782
1 93.9292 141.294 196.991
1 93.6213 143.363 201.2
1 93.3134 145.432 205.408