LAMMPS (23 Jun 2022)
OMP_NUM_THREADS environment is not set. Defaulting to 1 thread. (src/src/comm.cpp:98)
  using 1 OpenMP thread(s) per MPI task
Created orthogonal box = (0 0 0) to (150 150 150)
  4 by 4 by 4 MPI processor grid
Read molecule template lig:
  1 molecules
  0 fragments
  5 atoms with max type 2
  4 bonds with max type 1
  3 angles with max type 1
  0 dihedrals with max type 0
  0 impropers with max type 0
Created 1 atoms
  using box units in orthogonal box = (0 0 0) to (150 150 150)
  create_atoms CPU = 0.000 seconds
Created 3000 atoms
  using lattice units in orthogonal box = (0 0 0) to (150 150 150)
  create_atoms CPU = 0.004 seconds
Finding 1-2 1-3 1-4 neighbors ...
  special bond factors lj:    0        1        1       
  special bond factors coul:  0        0        0       
     2 = max # of 1-2 neighbors
     2 = max # of 1-3 neighbors
     2 = max # of 1-4 neighbors
     7 = max # of special neighbors
  special bonds CPU = 0.002 seconds
3000 atoms in group ligands
Generated 0 of 6 mixed pair_coeff terms from geometric mixing rule
Neighbor list info ...
  update every 1 steps, delay 10 steps, check yes
  max neighbors/atom: 2000, page size: 100000
  master list distance cutoff = 60
  ghost atom cutoff = 60
  binsize = 30, bins = 5 5 5
  1 neighbor lists, perpetual/occasional/extra = 1 0 0
  (1) pair lj/expand, perpetual
      attributes: half, newton on
      pair build: half/bin/newton
      stencil: half/bin/3d
      bin: standard
Setting up Verlet run ...
  Unit style    : real
  Current step  : 0
  Time step     : 30
Per MPI rank memory allocation (min/avg/max) = 8.076 | 8.105 | 8.367 Mbytes
   Step          Temp          E_pair         E_mol          TotEng         Press     
         0   0              9.8623636e+13  4.0068356e-25  9.8623636e+13  8.0147754e+12
      5000   143.45093     -671.88779      629.74922      1240.6614      4.4673422    
     10000   140.00313     -880.4756       655.90591      1027.3985      0.88586905   
Loop time of 3.79941 on 64 procs for 10000 steps with 3001 atoms

Performance: 6822.106 ns/day, 0.004 hours/ns, 2631.985 timesteps/s
99.6% CPU use with 64 MPI tasks x 1 OpenMP threads

MPI task timing breakdown:
Section |  min time  |  avg time  |  max time  |%varavg| %total
---------------------------------------------------------------
Pair    | 0.017991   | 0.05126    | 0.12314    |  10.8 |  1.35
Bond    | 0.010747   | 0.021159   | 0.034414   |   3.8 |  0.56
Neigh   | 0.55721    | 0.5652     | 0.57182    |   0.6 | 14.88
Comm    | 2.9711     | 3.0807     | 3.1416     |   2.1 | 81.08
Output  | 0.0012983  | 0.0013098  | 0.0013209  |   0.0 |  0.03
Modify  | 0.021986   | 0.040268   | 0.065181   |   5.2 |  1.06
Other   |            | 0.03956    |            |       |  1.04

Nlocal:        46.8906 ave          86 max          20 min
Histogram: 4 13 7 11 7 7 9 2 1 3
Nghost:        3442.52 ave        3536 max        3291 min
Histogram: 1 1 0 7 7 12 13 10 8 5
Neighs:        325.641 ave         967 max          79 min
Histogram: 14 18 4 11 9 4 0 1 2 1

Total # of neighbors = 20841
Ave neighs/atom = 6.9446851
Ave special neighs/atom = 3.5988004
Neighbor list builds = 909
Dangerous builds = 0
1 atoms in group nps
600 atoms in group amines
Generated 0 of 6 mixed pair_coeff terms from geometric mixing rule
Neighbor list info ...
  update every 1 steps, delay 10 steps, check yes
  max neighbors/atom: 2000, page size: 100000
  master list distance cutoff = 60
  ghost atom cutoff = 60
  binsize = 30, bins = 5 5 5
  3 neighbor lists, perpetual/occasional/extra = 1 2 0
  (1) pair lj/expand, perpetual
      attributes: half, newton on
      pair build: half/bin/newton
      stencil: half/bin/3d
      bin: standard
  (2) compute coord/atom, occasional
      attributes: full, newton on
      pair build: full/bin
      stencil: full/bin/3d
      bin: standard
  (3) compute coord/atom, occasional
      attributes: full, newton on
      pair build: full/bin
      stencil: full/bin/3d
      bin: standard
Setting up Verlet run ...
  Unit style    : real
  Current step  : 10000
  Time step     : 30
Per MPI rank memory allocation (min/avg/max) = 10.11 | 10.24 | 12.12 Mbytes
   Step          Temp          E_pair         E_mol          TotEng         Press     
     10000   140.00313     -880.4756       655.90591      1027.3985      0.88586905   
     15000   303.26791     -1105.1405      1287.8326      2894.6443      7.2576102    
     20000   298.51267     -1220.5096      1258.9917      2707.9108     -14.062368    
     25000   302.11198     -1455.2018      1284.3261      2530.7395      7.8223104    
     30000   295.10503     -1605.8084      1297.1004      2330.2481     -1.0628278    
     35000   302.1368      -1753.7261      1276.0086      2224.1197      24.949024    
     40000   304.80555     -1864.0596      1253.2939      2114.9367      13.142126    
     45000   302.45701     -2067.0033      1240.5789      1878.2764      26.209985    
     50000   300.46759     -2189.0123      1223.6582      1721.5564      6.1186367    
     55000   298.86546     -2321.1197      1275.8945      1627.3584      36.813334    
     60000   308.23534     -2380.3495      1261.9393      1637.9628      12.978942    
     65000   298.83384     -2523.6957      1261.2094      1409.8144      1.7912334    
     70000   304.78081     -2538.8715      1265.7011      1452.3107      8.8420527    
     75000   302.36299     -2677.7307      1269.6765      1295.8057     -5.8186116    
     80000   297.24217     -2758.5923      1336.9552      1236.4302     -5.7557505    
     85000   298.49488     -2771.5736      1230.8024      1128.4984     -9.594198     
     90000   294.47764     -2795.2883      1238.2262      1076.2837      14.782541    
     95000   291.61965     -2847.9614      1276.6876      1036.5146      17.235072    
    100000   298.561       -2931.8911      1305.7998      1043.7696      1.885077     
    105000   303.0278      -2985.2964      1290.5498      1015.0583      51.852338    
    110000   307.93323     -3011.752       1297.5515      1039.4709     -7.8974352    
    115000   290.31877     -3042.4048      1340.1868      893.93741     -5.0805506    
    120000   295.36138     -3087.169       1309.4583      863.53778      7.3384431    
    125000   300.75201     -3150.6131      1227.1399      765.98065      8.6323929    
    130000   298.24683     -3199.2012      1220.8851      688.73537      9.9338389    
    135000   303.18449     -3240.7932      1217.7338      688.1468       7.0173017    
    140000   300.4332      -3289.3631      1251.4956      648.73548      9.0499105    
    145000   299.8711      -3337.7284      1243.6754      587.52333      23.989463    
    150000   300.57129     -3346.6913      1288.2501      629.39658     -6.5028327    
    155000   296.74118     -3378.2721      1251.9334      527.24863      16.782041    
    160000   296.14488     -3413.0257      1269.3875      504.61671      6.4135966    
    165000   293.02027     -3409.4427      1231.6144      442.48497      6.2144978    
    170000   298.89167     -3461.2874      1210.7603      422.29077      12.635674    
    175000   301.36047     -3466.4725      1228.2974      456.71987     -4.3644634    
    180000   305.94013     -3497.9309      1179.7105      417.62772     -8.4656513    
    185000   295.0652      -3489.8671      1228.4443      377.17712      41.612092    
    190000   300.66511     -3537.774       1263.5749      414.4776       19.957219    
    195000   296.61053     -3549.2647      1268.974       372.12821      7.5184192    
    200000   299.02287     -3552.4052      1214.8081      336.39396     -12.115545    
    205000   298.49503     -3585.8327      1228.8016      312.23989      4.8292488    
    210000   302.71037     -3634.5565      1267.0611      339.47092     -18.773137    
    215000   297.28183     -3641.2246      1246.5692      263.76662      18.274142    
    220000   305.48739     -3663.4617      1270.2012      338.53906     -1.8053097    
    225000   296.56272     -3710.6635      1294.7073      236.03521      4.6159671    
    230000   298.07377     -3719.7243      1295.8838      241.66336     -16.704925    
    235000   300.80952     -3738.6717      1244.462       195.75844      4.5655987    
    240000   303.33681     -3762.7198      1207.0792      156.92773     -5.3877774    
    245000   297.19704     -3769.0271      1256.8332      145.46991     -5.1920239    
    250000   299.0998      -3784.945       1230.2162      119.95019      0.95787105   
    255000   292.39959     -3814.4917      1191.3664     -8.3623758      12.362607    
    260000   299.8725      -3812.2187      1268.69        138.06015     -4.2119188    
    265000   298.5028      -3851.0933      1282.6285      100.87571      9.213305     
    270000   300.68507     -3813.729       1206.7566      81.882781     -12.068147    
    275000   305.92601     -3890.3559      1256.4926      101.85868     -1.0032702    
    280000   306.58664     -3860.7588      1226.769       107.63977     -17.727466    
    285000   302.45673     -3891.5306      1232.2097      45.37733       40.611713    
    290000   308.61704     -3915.4488      1263.5842      107.92181     -8.383962     
    295000   306.6369      -3928.2495      1185.6199     -0.55056992     23.002306    
    300000   301.29777     -3929.1612      1229.9071     -4.9198473     -3.5438557    
    305000   294.41119     -3957.3329      1184.6523     -139.92917      18.391431    
    310000   303.0855      -3980.2542      1228.3324     -41.600878      6.6230018    
    315000   306.72111     -4001.3616      1218.5506     -39.978933      8.6150023    
    320000   301.56798     -3961.1264      1259.2448     -5.1310103     -21.444497    
    325000   298.14668     -4028.4438      1239.2808     -123.00722     -49.488183    
    330000   298.53423     -4020.3332      1193.5429     -157.16879      9.4255145    
    335000   300.21427     -4018.2731      1240.5021     -93.125844     -11.799758    
    340000   302.75845     -4021.7624      1190.8318     -123.53432     -1.0019387    
    345000   308.22044     -4025.3703      1192.8699     -76.260606      62.795249    
    350000   307.24488     -4047.8536      1184.383      -115.95476      17.851412    
    355000   291.19255     -4063.3335      1232.9766     -226.38785     -12.90471     
    360000   297.95874     -4032.5044      1190.245      -177.7843      -3.6732324    
    365000   303.60418     -4057.3607      1236.4671     -105.93443     -12.305946    
    370000   301.28093     -4084.8509      1249.2645     -141.40274     -12.484831    
    375000   297.3901      -4069.6749      1174.4138     -235.87094      1.0741013    
    380000   304.69481     -4059.6829      1217.4721     -117.49868      5.5459905    
    385000   300.70779     -4119.8814      1175.2875     -255.5355       7.2049933    
    390000   304.63952     -4166.8379      1248.0082     -194.61208     -3.9304109    
    395000   304.71086     -4161.9277      1247.3664     -189.70574      8.5076732    
    400000   293.29686     -4149.0199      1229.8527     -296.38044      11.154007    
    405000   308.08971     -4144.2999      1252.4054     -136.82377      4.4125757    
    410000   306.03069     -4164.2061      1257.4407     -170.10728     -7.703571     
    415000   302.44725     -4201.371       1188.2245     -308.53304     -20.789943    
    420000   300.45873     -4193.2469      1248.714      -257.70163      5.5843715    
    425000   298.28728     -4186.2616      1251.9189     -266.9296       6.3589882    
    430000   305.33763     -4186.3157      1256.1147     -199.74054      16.652705    
    435000   296.97473     -4208.1179      1220.266      -332.17614     -0.34980047   
    440000   298.04046     -4213.8407      1211.7226     -336.91208      2.2787088    
    445000   299.74074     -4219.844       1224.3768     -315.05664     -6.6485879    
    450000   296.70884     -4182.6216      1233.5403     -295.78325     -4.8853014    
    455000   296.71958     -4201.4976      1225.9719     -322.13157      12.393546    
    460000   299.25971     -4208.9931      1206.1214     -326.76268     -25.382133    
    465000   295.95844     -4206.9626      1199.4052     -360.96977      6.172402     
    470000   299.70546     -4255.946       1241.2804     -334.57047      3.7756698    
    475000   301.9554      -4241.1239      1181.1126     -359.79629     -25.54221     
    480000   299.65515     -4249.221       1225.3127     -344.26298      16.560598    
    485000   297.97171     -4224.4482      1252.8556     -307.00134      19.584059    
    490000   294.58309     -4269.5849      1173.11       -462.18624      16.343683    
    495000   296.67957     -4249.3265      1183.7299     -412.56029      19.539059    
    500000   300.97135     -4249.2329      1245.8554     -311.96218     -13.438189    
    505000   297.05699     -4282.8563      1199.1051     -427.3398       7.2579958    
    510000   296.4856      -4263.6904      1217.3216     -395.06703      4.6204632    
    515000   301.44898     -4269.3544      1257.9032     -315.76478     -16.799881    
    520000   305.08055     -4265.6521      1173.4272     -364.06336      6.7479489    
    525000   302.28127     -4252.2591      1246.0809     -303.0491       22.07558     
    530000   302.5843      -4255.9929      1214.0444     -336.10963      13.125631    
    535000   307.36494     -4278.7656      1217.6878     -312.48825      57.151081    
    540000   291.42265     -4271.2998      1211.8688     -453.4043       4.8168814    
    545000   298.84344     -4270.0836      1245.744      -351.95288     -2.1226921    
    550000   302.91121     -4296.0171      1253.067      -334.18768      8.9174011    
    555000   301.4525      -4297.8671      1220.0844     -382.06482     -8.4425603    
    560000   300.78969     -4289.3556      1174.1801     -425.3847       1.6355346    
    565000   304.80855     -4299.3287      1197.6259     -375.97364     -15.916208    
    570000   294.74634     -4323.7645      1185.2405     -502.7754      -26.942778    
    575000   299.41181     -4326.6478      1147.7423     -501.43633     -3.236725     
    580000   301.38279     -4377.832       1177.8993     -504.83814      52.944982    
    585000   295.90163     -4351.818       1184.3712     -521.36715     -27.833553    
    590000   299.01477     -4378.8664      1273.2077     -431.74005      11.780711    
    595000   294.58813     -4357.6117      1228.5495     -494.72838      2.2772107    
    600000   301.54104     -4399.9104      1212.2678     -491.13292      10.018018    
    605000   304.09034     -4398.6855      1200.8763     -478.50262     -16.966224    
    610000   296.06842     -4412.4462      1252.1927     -512.68233     -4.6361197    
    615000   301.98268     -4417.6308      1180.7014     -536.47046     -20.614755    
    620000   304.56182     -4416.2888      1214.2358     -478.53025      18.080371    
    625000   298.90196     -4412.9235      1203.5651     -536.4485       7.5370419    
    630000   296.83358     -4419.0844      1194.9617     -569.70914      4.4446411    
    635000   298.94652     -4454.4195      1211.7718     -569.33927     -0.59269434   
    640000   301.19592     -4442.3119      1202.9534     -545.93504      1.0189759    
    645000   309.85206     -4413.1925      1251.7096     -390.65246      6.9793739    
    650000   302.55115     -4443.2032      1229.588      -508.07275      12.702429    
    655000   299.77914     -4458.4817      1158.0394     -619.68826      28.644198    
    660000   297.21986     -4429.4706      1173.5983     -598.00449      22.353122    
    665000   299.41569     -4440.5816      1242.0323     -521.04535     -14.045297    
    670000   298.55435     -4459.8216      1212.664      -577.3561       13.409503    
    675000   294.70006     -4441.1503      1210.5776     -595.23801      26.756501    
    680000   309.09086     -4452.9326      1176.1272     -512.78191     -7.0611971    
    685000   297.27559     -4438.8341      1211.7733     -568.69463      19.036852    
    690000   300.48407     -4448.8959      1173.3535     -588.4846      -30.212859    
    695000   299.9698      -4459.7595      1208.7847     -568.51582      19.520411    
    700000   306.38494     -4444.6919      1203.2873     -501.57866      38.195089    
    705000   303.00693     -4445.0016      1239.5516     -495.83171      3.3875008    
    710000   299.22778     -4501.5707      1204.0605     -621.68665      2.2965522    
    715000   302.35703     -4468.9842      1198.8228     -566.35479      14.460971    
    720000   301.27372     -4494.5855      1224.0472     -576.41917     -9.9406486    
    725000   304.53127     -4471.186       1254.2596     -493.67682     -19.068698    
    730000   299.01395     -4467.809       1163.0552     -630.84247     -8.8479985    
    735000   298.38609     -4487.0975      1193.8156     -624.98509      7.9742659    
    740000   290.34992     -4469.7415      1181.8373     -691.47029     -7.873521     
    745000   301.0814      -4477.2947      1260.5804     -524.31485      19.489456    
    750000   298.56218     -4480.8424      1273.9071     -537.0638       4.8974914    
    755000   304.98057     -4447.5026      1239.3709     -480.86429     -21.672313    
    760000   299.54435     -4465.7357      1243.4155     -543.66569     -19.720219    
    765000   300.33707     -4464.6355      1233.4368     -545.45549     -3.3605952    
    770000   295.79551     -4432.7805      1173.6737     -613.97604      11.45045     
    775000   293.18123     -4473.3543      1237.2167     -614.38494      4.5450646    
    780000   298.36527     -4453.8368      1242.6203     -543.10589      10.143862    
    785000   294.68143     -4478.9156      1194.0694     -649.67812      22.462355    
    790000   301.09137     -4473.3379      1196.432      -584.41746      1.0500114    
    795000   297.45698     -4489.1032      1185.673      -643.4419       6.0737347    
    800000   302.79796     -4509.2546      1205.6033     -595.90175      13.315973    
    805000   297.40303     -4487.2514      1193.2163     -634.52936      2.2001253    
    810000   302.91665     -4507.1768      1193.4802     -604.88562     -11.792158    
    815000   297.0992      -4514.5419      1224.4534     -633.29958      15.471706    
    820000   304.73682     -4525.2121      1204.8477     -595.27672      11.747132    
    825000   294.70045     -4505.9696      1230.0028     -640.62867      35.588631    
    830000   298.27104     -4521.9186      1204.0549     -650.59582      23.816872    
    835000   299.30171     -4531.1537      1218.5136     -636.15542     -19.686504    
    840000   304.59474     -4507.0333      1204.0854     -579.13069      7.3894025    
    845000   292.98353     -4508.0334      1186.8716     -701.177        5.3019797    
    850000   306.55065     -4547.4732      1198.7938     -607.37164     -0.077950612  
    855000   304.14467     -4494.5365      1229.6612     -545.08278     -11.475453    
    860000   292.82289     -4504.6541      1192.7782     -693.32768      20.600295    
    865000   291.40675     -4515.3859      1161.7896     -747.7118       8.3593854    
    870000   300.02429     -4541.8406      1228.5656     -630.3288      -4.8777678    
    875000   299.26458     -4526.7302      1229.1339     -621.44365      6.7978716    
    880000   297.8082      -4499.8252      1203.402      -633.29416      2.2915143    
    885000   309.8936      -4583.9722      1206.2831     -606.48726     -0.19998154   
    890000   308.45547     -4521.6678      1200.4824     -562.84387      0.49358818   
    895000   292.12704     -4553.4528      1250.5233     -690.6039      -29.443846    
    900000   294.54662     -4547.6953      1189.4982     -724.23454      19.53639     
    905000   298.54029     -4531.2419      1213.6799     -647.88636      12.474329    
    910000   298.12242     -4556.757       1123.3597     -767.45833      10.30929     
    915000   296.93908     -4569.7815      1182.9        -731.52443     -17.580441    
    920000   306.69068     -4571.8693      1213.2131     -616.09621     -4.2525738    
    925000   292.8122      -4526.144       1202.1836     -705.50779      19.586817    
    930000   301.12184     -4577.7042      1188.3495     -696.59378      20.14271     
    935000   305.84817     -4538.1193      1208.2801     -594.81335      10.502151    
    940000   304.09929     -4524.7009      1194.6109     -610.70334     -18.775203    
    945000   297.34029     -4539.4018      1194.434      -686.02301     -19.754293    
    950000   305.00626     -4578.9275      1208.9204     -642.50995      6.5055432    
    955000   297.4355      -4533.7974      1189.9678     -684.03332     -6.6484986    
    960000   303.33446     -4537.4339      1246.8207     -578.06594     -15.645623    
    965000   303.58091     -4580.3051      1161.6159     -703.93816      11.725579    
    970000   302.28704     -4595.2971      1207.016      -685.10039      10.653775    
    975000   299.82756     -4570.0723      1144.9924     -743.89296      16.119348    
    980000   295.72185     -4581.7287      1183.5575     -753.69916      33.98287     
    985000   302.59506     -4597.7402      1207.3683     -684.43675      4.4499218    
    990000   294.98166     -4575.945       1202.8393     -735.25281      1.2888314    
    995000   302.58247     -4579.0538      1150.7988     -722.43242      19.150099    
   1000000   307.53472     -4555.6152      1180.3954     -625.11202      3.6242247    
   1005000   292.84512     -4581.3276      1203.1174     -759.46326     -0.27442635   
   1010000   306.60532     -4574.5711      1230.504      -602.27049     -5.4090233    
   1015000   300.34542     -4550.8297      1233.4068     -631.60496     -26.517784    
   1020000   297.62225     -4602.7184      1195.4905     -745.76168      1.6858177    
   1025000   306.31651     -4596.9987      1214.3783     -643.40643      38.263462    
   1030000   301.63301     -4615.5954      1227.4514     -690.81189     -0.33718729   
   1035000   301.21492     -4582.787       1169.5733     -719.62028     -1.315046     
   1040000   298.35017     -4600.4434      1169.894      -762.57385      30.779524    
   1045000   296.44124     -4586.0953      1209.2418     -725.94845     -11.319997    
   1050000   298.70694     -4595.4622      1214.329      -709.96721      4.091208     
   1055000   308.63175     -4639.7826      1252.6482     -627.21658      18.363355    
   1060000   297.64615     -4639.9703      1199.9164     -778.37398      20.767192    
   1065000   293.21558     -4636.6365      1179.0838     -835.49293      0.3868266    
   1070000   304.08981     -4633.6564      1192.329      -722.02558      5.0069067    
   1075000   301.34094     -4656.022       1188.7107     -772.59097      66.856787    
   1080000   301.14951     -4665.2977      1166.2564     -806.03287     -10.060588    
   1085000   298.59167     -4643.9718      1208.495      -765.34156     -10.562633    
   1090000   299.54979     -4638.8641      1138.4254     -821.7356       0.75923619   
   1095000   298.22091     -4650.4746      1201.5282     -782.12673      7.0389687    
   1100000   296.72702     -4652.0006      1206.2183     -792.32155     -41.780987    
   1105000   299.35804     -4674.2539      1219.3257     -777.93994     -6.3888295    
   1110000   300.18648     -4672.7849      1176.6213     -811.76694      13.74539     
   1115000   303.13567     -4649.7064      1202.5365     -736.40032      29.916641    
   1120000   300.42341     -4630.8072      1180.8518     -763.44002      9.400041     
   1125000   300.63037     -4625.9095      1135.008      -802.53532     -29.53339     
   1130000   297.0139      -4614.0189      1204.7815     -753.21133     -3.84072      
   1135000   302.56744     -4639.4486      1202.3862     -731.37427     -12.952552    
   1140000   300.10049     -4670.3751      1191.8877     -794.85974     -1.3849155    
   1145000   295.25841     -4644.9554      1207.548      -797.07973     -14.922285    
   1150000   306.32454     -4665.3127      1133.3758     -792.65107      35.773035    
   1155000   303.56366     -4627.9609      1207.3712     -705.99282      39.37064     
   1160000   304.68746     -4644.2796      1206.9007     -712.73259     -18.772148    
   1165000   295.95721     -4677.3849      1210.8278     -819.98047      2.8844363    
   1170000   299.60447     -4664.9598      1244.8572     -740.91063     -4.7390177    
   1175000   290.95321     -4641.3038      1203.4213     -836.05373     -5.535997     
   1180000   303.31256     -4664.4301      1228.865      -723.21379      15.363031    
   1185000   300.8346      -4646.6543      1227.9789     -728.48298     -16.142634    
   1190000   295.13272     -4649.8515      1223.6676     -786.98024      11.787443    
   1195000   309.97803     -4673.1787      1221.8732     -679.34865      9.5701525    
   1200000   308.07123     -4657.9252      1182.2368     -720.78299      22.56112     
   1205000   310.7807      -4666.4411      1210.8853     -676.42113      11.941834    
   1210000   299.3686      -4681.0438      1215.6943     -788.26669     -0.37271661   
   1215000   300.11583     -4647.6386      1219.5358     -744.33788      11.289604    
   1220000   303.06928     -4704.6844      1253.9205     -740.58813      0.89655595   
   1225000   297.78702     -4698.5247      1194.6507     -840.93432      3.7685986    
   1230000   299.32522     -4672.2643      1218.8478     -776.72162      0.44330646   
   1235000   296.77886     -4681.4714      1204.6472     -822.8999      -24.735168    
   1240000   299.55392     -4664.5157      1219.6566     -766.11906      14.360049    
   1245000   302.43182     -4710.3961      1193.3139     -812.60677      0.78524288   
   1250000   302.63213     -4692.2414      1152.0609     -833.91391      1.2520872    
   1255000   293.82928     -4707.6325      1185.5904     -894.49423     -29.613001    
   1260000   296.50424     -4656.2672      1231.2945     -773.50424     -29.042715    
   1265000   295.96328     -4661.9632      1214.3573     -800.97488      9.2163496    
   1270000   298.1539      -4694.4426      1237.5003     -790.72188      17.206815    
   1275000   295.48587     -4678.3602      1185.5209     -850.47752      23.77541     
   1280000   299.95424     -4678.4806      1213.387      -782.7737      -27.505618    
   1285000   297.17681     -4690.399       1179.6637     -853.25249      24.647871    
   1290000   302.55743     -4707.056       1188.0477     -813.40961     -4.4859272    
   1295000   292.83989     -4696.7383      1204.2774     -873.76064      18.639814    
   1300000   304.41908     -4697.5906      1179.599      -795.74531     -14.442101    
   1305000   309.59068     -4677.4763      1217.5733     -691.41002      2.6081656    
   1310000   291.06894     -4687.4847      1219.0216     -865.59937      15.67684     
   1315000   301.68009     -4719.6695      1180.88       -841.0364       27.216518    
   1320000   298.00924     -4711.5732      1177.6797     -868.96665      11.827465    
   1325000   298.33588     -4696.6114      1186.5138     -842.24985      51.659633    
   1330000   303.74939     -4688.305       1244.2748     -727.77253     -15.971523    
   1335000   297.79938     -4724.0774      1181.9926     -879.03464     -2.8305861    
   1340000   306.63994     -4687.8467      1200.8571     -744.88343      9.9739646    
   1345000   297.87671     -4689.5738      1214.7341     -811.09801      5.687428     
   1350000   296.71124     -4737.8549      1177.8346     -906.70076      17.390679    
   1355000   299.1643      -4695.5649      1177.4047     -842.90432      18.877678    
   1360000   299.39719     -4708.6325      1225.2427     -806.05135      13.431866    
   1365000   300.6778      -4699.4429      1224.5296     -786.12303      6.2171323    
   1370000   296.43073     -4687.0979      1229.0811     -807.20569      11.943654    
   1375000   304.28074     -4728.3356      1203.7541     -803.57233      12.540502    
   1380000   297.38481     -4667.1948      1183.685      -824.16696      12.487844    
   1385000   300.75013     -4706.3015      1177.9318     -838.93268     -25.933056    
   1390000   293.51247     -4722.947       1188.4105     -909.82172     -36.094873    
   1395000   294.35616     -4716.1681      1264.5327     -819.37601     -6.7641296    
   1400000   306.44317     -4686.1838      1201.1184     -744.71874     -9.4943866    
   1405000   291.83643     -4678.7442      1191.9799     -877.03735     -9.0138744    
   1410000   303.42915     -4714.091       1175.7109     -824.98617     -6.1972075    
   1415000   304.71028     -4686.3195      1232.6198     -728.84934      9.6010142    
   1420000   299.81479     -4714.0913      1185.6453     -847.37316      21.362562    
   1425000   304.88961     -4721.9339      1215.9825     -779.49736     -2.5643204    
   1430000   298.18772     -4658.7667      1194.3419     -797.90189     -27.215711    
   1435000   302.49122     -4735.6911      1156.5033     -874.18125      1.4759962    
   1440000   300.69605     -4703.9736      1196.8813     -818.13896      27.9394      
   1445000   298.38357     -4702.4538      1171.4475     -862.73201     -4.350038     
   1450000   300.65988     -4729.657       1207.5142     -833.51287      21.746551    
   1455000   295.81345     -4709.6451      1193.0755     -871.27846      22.441639    
   1460000   298.13451     -4738.0854      1246.6107     -825.42766      28.437216    
   1465000   297.38186     -4694.6006      1238.0798     -797.20427     -2.0812078    
   1470000   302.19369     -4717.0923      1216.7706     -797.97567     -20.837773    
   1475000   290.16709     -4702.2245      1238.5433     -868.88232     -1.3790795    
   1480000   303.9235      -4713.512       1186.2223     -809.47507     -8.913856     
   1485000   301.69471     -4698.6262      1162.7415     -838.0009       2.7926727    
   1490000   296.69729     -4687.32        1174.5982     -859.52707      19.92723     
   1495000   294.65528     -4723.964       1188.2759     -900.75379     -13.189828    
   1500000   294.20691     -4734.6375      1182.3314     -921.38129     -2.8359831    
   1505000   290.42895     -4678.5117      1190.3579     -891.01327      19.138804    
   1510000   305.29309     -4681.6726      1193.2282     -758.38221      3.8992041    
   1515000   301.54513     -4725.6026      1200.0292     -829.02709     -5.3534619    
   1520000   297.80461     -4715.4683      1178.8727     -873.49865      3.4722281    
   1525000   302.77696     -4693.0282      1202.4887     -782.97768      16.543173    
   1530000   298.45584     -4711.9291      1190.9895     -852.01911     -0.94579844   
   1535000   301.24672     -4689.8517      1178.0193     -817.95466     -8.8667108    
   1540000   302.08957     -4739.47        1266.2313     -771.82385      11.506614    
   1545000   301.57943     -4700.0684      1211.7483     -791.46712      16.443331    
   1550000   297.00047     -4715.9472      1245.2345     -814.80677      9.8253523    
   1555000   300.02382     -4717.2106      1247.4963     -786.77234     -18.351602    
   1560000   296.15437     -4712.436       1219.9816     -844.11463      26.487829    
   1565000   303.4599      -4741.326       1211.7768     -815.88021     -12.353356    
   1570000   297.63538     -4753.1554      1168.6788     -922.8929       2.6117624    
   1575000   300.02149     -4714.2913      1164.8038     -866.56626     -13.646143    
   1580000   310.29365     -4685.2496      1167.9888     -742.48152      20.404938    
   1585000   304.25418     -4725.3221      1257.58       -746.97034     -26.97834     
   1590000   300.37054     -4726.4068      1206.5456     -833.81865     -35.825275    
   1595000   310.67116     -4716.9042      1198.9796     -739.76947     -5.6804629    
   1600000   298.84706     -4735.0717      1182.3748     -880.27791      12.811933    
   1605000   293.63181     -4745.7329      1228.8004     -891.15053     -12.426125    
   1610000   298.88564     -4737.3593      1213.9564     -850.63905     -1.9690002    
   1615000   294.14307     -4720.6276      1195.306      -894.96777      21.904767    
   1620000   305.91444     -4712.1314      1198.8157     -777.69711      5.9241042    
   1625000   300.03577     -4715.4897      1188.0747     -844.36601      22.281507    
   1630000   290.48631     -4709.7721      1221.4539     -890.66459      48.767034    
   1635000   292.0082      -4708.4527      1195.3124     -901.87738      3.2665002    
   1640000   301.09058     -4727.2645      1190.8109     -843.97207     -11.102185    
   1645000   299.60143     -4725.3035      1188.5194     -857.61924      0.50194046   
   1650000   301.3826      -4744.9127      1171.6263     -878.19349     -1.9492051    
   1655000   294.02399     -4722.4255      1242.0345     -851.10204      24.871063    
   1660000   294.53791     -4727.8129      1199.4794     -894.44894      14.681807    
   1665000   305.10765     -4720.0808      1216.22       -775.45693      4.8543847    
   1670000   305.53018     -4721.2367      1200.8409     -788.21349     -7.3165019    
   1675000   303.24578     -4742.2006      1194.6731     -835.77328      12.907821    
   1680000   300.20243     -4727.6826      1152.8153     -890.32805      8.519426     
   1685000   295.24575     -4759.6052      1200.4816     -918.90907     -13.248287    
   1690000   296.7243      -4762.4817      1189.1375     -919.90788     -24.04981     
   1695000   291.50675     -4744.4159      1170.6682     -966.96892     -4.8567833    
   1700000   305.50061     -4724.5182      1181.5366     -811.0637       45.049752    
   1705000   300.32621     -4743.039       1145.5869     -911.80587      23.501719    
   1710000   304.61405     -4738.6827      1219.3428     -795.34997     -14.389951    
   1715000   299.45544     -4775.2945      1188.5056     -908.92951     -5.2871026    
   1720000   294.26976     -4731.966       1208.8969     -891.58231      3.8483081    
   1725000   293.5252      -4765.5444      1173.6012     -967.11461     -14.306355    
   1730000   302.91305     -4725.4907      1189.7523     -826.95955      5.997436     
   1735000   300.90762     -4713.7418      1201.6322     -821.26428      7.724107     
   1740000   307.02532     -4762.3181      1183.8382     -832.92738      23.382472    
   1745000   303.54179     -4734.1866      1150.502      -869.28331     -26.655812    
   1750000   300.09486     -4751.0636      1200.0128     -867.47351     -13.593888    
   1755000   305.05837     -4762.9635      1230.4926     -804.50772      21.738105    
   1760000   297.29161     -4723.5024      1218.8498     -846.14314      3.0558535    
   1765000   293.59196     -4748.525       1185.1463     -937.95306     -18.756265    
   1770000   297.98068     -4787.7875      1176.249      -946.86709      15.365683    
   1775000   301.35048     -4773.9082      1192.3446     -886.75802      2.8363325    
   1780000   299.3658      -4787.531       1230.4534     -880.01982      8.2924794    
   1785000   301.3369      -4791.7031      1175.9243     -921.09456      16.885545    
   1790000   307.09516     -4764.3617      1168.6408     -849.54388      32.205209    
   1795000   298.95818     -4740.7879      1203.2171     -864.15809     -29.025444    
   1800000   304.97365     -4770.7484      1193.9827     -849.56021     -8.3356743    
   1805000   294.50796     -4743.7587      1201.2624     -908.87946      5.9198301    
   1810000   300.44954     -4760.2053      1197.3159     -876.14035      24.193294    
   1815000   301.68948     -4765.7708      1159.8446     -908.08911     -4.2143775    
   1820000   302.01621     -4785.5149      1203.805      -880.95104     -0.52471719   
   1825000   296.12135     -4806.3798      1217.118      -941.21734      23.226362    
   1830000   297.84505     -4784.4371      1197.5053     -923.47321     -31.032869    
   1835000   298.84733     -4793.9192      1203.9241     -917.57375     -5.3287455    
   1840000   303.85339     -4828.8554      1204.2722     -907.39554      30.910823    
   1845000   293.7257      -4796.1634      1226.8409     -942.70091      17.374806    
   1850000   299.05206     -4800.1815      1193.2539     -932.67547      35.02103     
   1855000   300.78342     -4779.1065      1204.9344     -884.43738     -14.362447    
   1860000   303.92751     -4816.5981      1220.8855     -877.86211     -5.0516512    
   1865000   290.56814     -4803.6113      1206.6336     -998.59241      44.264478    
   1870000   299.54425     -4771.5356      1192.3078     -900.57424     -0.3261855    
   1875000   295.37094     -4793.4033      1135.0993     -1016.9699     -28.870354    
   1880000   305.91235     -4800.4363      1183.4259     -881.41055     -10.094404    
   1885000   310.1738      -4824.6003      1189.3789     -861.51383     -8.0740715    
   1890000   305.82807     -4825.5502      1197.0402     -893.66383      4.0691596    
   1895000   294.15431     -4806.0434      1128.6642     -1046.9248      1.8858267    
   1900000   292.87653     -4773.9201      1195.6512     -959.24094     -8.9584705    
   1905000   303.72704     -4802.77        1167.3012     -919.41097      21.780263    
   1910000   298.85944     -4791.684       1206.1802     -912.97407      26.528378    
   1915000   296.43876     -4808.4943      1189.1144     -968.49705      1.2124164    
   1920000   298.81829     -4801.0115      1206.1141     -922.73566      2.8979349    
   1925000   299.67158     -4799.0705      1197.4984     -921.77997      10.799179    
   1930000   307.21713     -4819.8495      1179.6282     -892.95358      9.9354179    
   1935000   306.81081     -4800.9546      1147.6384     -909.68202      47.481949    
   1940000   301.78506     -4817.0356      1198.0308     -920.31305     -0.36613196   
   1945000   297.89684     -4823.5321      1200.3182     -959.29212      1.8832925    
   1950000   312.64918     -4804.6194      1212.6872     -796.08872      5.0433827    
   1955000   299.10015     -4795.0731      1161.0377     -959.35321      5.3131709    
   1960000   294.37824     -4826.1725      1210.6056     -983.11012     -22.137621    
   1965000   294.9705      -4809.3529      1198.3806     -973.21929     -1.1599904    
   1970000   309.48347     -4792.719       1224.1437     -801.04099     -1.84935      
   1975000   297.01954     -4820.2173      1206.6566     -957.48416      14.35142     
   1980000   298.25414     -4815.5224      1186.3466     -962.05906      3.809659     
   1985000   301.26675     -4818.707       1196.9257     -927.7244       12.169123    
   1990000   302.01145     -4807.6055      1205.7582     -901.13091     -11.273895    
   1995000   293.77959     -4801.8915      1205.884      -968.90392     -2.6128964    
   2000000   298.8471      -4772.5609      1211.7607     -888.38089      16.476108    
   2005000   304.68391     -4827.8978      1181.9907     -921.2926       12.019923    
   2010000   295.18305     -4783.7134      1194.1603     -949.89931      12.988295    
   2015000   297.69423     -4794.9689      1188.7845     -944.07454      31.628895    
   2020000   297.24815     -4804.6479      1203.8748     -942.65229      2.7481217    
   2025000   303.90807     -4820.3603      1198.4611     -904.22255     -24.217857    
   2030000   298.21617     -4832.4939      1276.5383     -889.17833     -4.2324839    
   2035000   294.80628     -4782.6618      1200.1213     -946.25591      30.623685    
   2040000   298.66691     -4828.9115      1159.2812     -998.82234      0.55736616   
   2045000   296.71439     -4818.4232      1169.7043     -995.37123     -0.050319495  
   2050000   303.0241      -4806.7109      1214.6898     -882.24925     -23.149467    
   2055000   297.11745     -4837.4847      1204.9605     -975.57217      1.1835729    
   2060000   298.4088      -4806.9356      1164.8485     -973.58726      27.360675    
   2065000   296.67745     -4813.9657      1244.5865     -916.36183      23.879957    
   2070000   301.69445     -4845.4622      1140.0754     -1007.5053     -5.8881296    
   2075000   304.3677      -4828.6359      1234.8978     -871.95118      2.1737566    
   2080000   301.68155     -4840.0439      1167.9557     -974.322       -0.99818698   
   2085000   296.92826     -4843.4101      1203.7705     -984.37927      1.9499305    
   2090000   297.18137     -4860.4131      1227.8742     -975.01518      31.476137    
   2095000   293.78848     -4838.5885      1204.8944     -1006.5111     -23.69226     
   2100000   307.24959     -4830.5965      1167.2928     -915.74579      13.996324    
   2105000   289.92057     -4833.1591      1186.4434     -1054.1213      1.207785     
   2110000   303.22351     -4813.1659      1202.6867     -898.92417      30.98442     
   2115000   296.33886     -4824.8175      1185.2545     -989.57346      31.264445    
   2120000   301.39678     -4835.3499      1200.2666     -939.86355     -2.6031862    
   2125000   303.5614      -4845.362       1241.9188     -888.86658      12.635439    
   2130000   302.77745     -4845.5332      1175.178      -962.78907      22.767602    
   2135000   296.24157     -4848.4322      1174.8879     -1024.4248      13.208438    
   2140000   295.63165     -4866.0512      1176.1557     -1046.2301     -10.755633    
   2145000   297.98124     -4865.3649      1178.8896     -1021.7989      16.735389    
   2150000   295.10493     -4869.1116      1205.1518     -1025.0046      43.290969    
   2155000   296.61672     -4837.8631      1153.9769     -1031.4119      0.42029757   
   2160000   303.58088     -4848.56        1208.0893     -925.71996     -5.3969979    
   2165000   295.51029     -4840.4581      1214.1829     -983.69502      4.2512654    
   2170000   299.25045     -4830.7209      1212.92       -941.7746       23.133154    
   2175000   298.3678      -4844.988       1169.2853     -1007.5695     -0.035082474  
   2180000   300.60468     -4827.9089      1172.994      -966.77849     -11.369477    
   2185000   304.63142     -4854.0866      1203.7841     -926.1574       36.729362    
   2190000   301.64954     -4849.8172      1182.2669     -970.07036      22.131984    
   2195000   297.59337     -4871.2726      1201.2845     -1008.7802     -8.2288519    
   2200000   300.86828     -4845.5575      1220.4116     -934.65239     -5.3951293    
   2205000   299.1775      -4871.6393      1206.0124     -990.25291     -9.1070246    
   2210000   301.82904     -4853.2993      1179.9858     -974.2284      -18.636168    
   2215000   299.28426     -4895.9654      1147.4074     -1072.2293     -24.396712    
   2220000   302.56391     -4851.5115      1189.9899     -955.86504     -29.823665    
   2225000   297.47387     -4850.212       1156.5235     -1033.5493      23.198967    
   2230000   299.94043     -4871.442       1205.686      -983.55971      22.483774    
   2235000   296.8236      -4855.7795      1200.6333     -1000.8219      25.104356    
   2240000   292.87286     -4833.0342      1244.2363     -969.80287      23.634973    
   2245000   301.07948     -4853.1985      1174.2886     -986.52772      1.1950245    
   2250000   301.10691     -4868.036       1196.3986     -979.00992      22.629477    
   2255000   306.70656     -4851.4392      1192.4691     -916.26819      16.092884    
   2260000   300.90465     -4892.7113      1193.6461     -1008.2463     -7.2659834    
   2265000   283.70057     -4866.273       1156.1119     -1173.1886     -1.6526332    
   2270000   290.31614     -4891.9294      1156.0496     -1139.748      -21.234384    
   2275000   303.45615     -4866.2975      1217.4894     -935.17264     -21.158548    
   2280000   296.73471     -4861.7443      1182.4488     -1025.7661      4.6278546    
   2285000   300.16699     -4894.6759      1159.9222     -1050.5314      16.307924    
   2290000   299.16924     -4912.979       1166.5312     -1071.1478     -3.5290546    
   2295000   303.3936      -4865.6682      1150.8013     -1001.7908      16.483045    
   2300000   304.99041     -4843.4803      1166.4507     -949.67418     -3.4376849    
   2305000   296.35225     -4853.2513      1199.2058     -1003.9361      8.9732681    
   2310000   303.6889      -4866.4269      1176.9884     -973.72163      21.660412    
   2315000   297.98264     -4852.3603      1202.5373     -985.13402      33.706457    
   2320000   301.64045     -4910.7108      1182.3075     -1031.0046      26.073874    
   2325000   299.77561     -4877.3488      1162.3087     -1034.3177      29.914195    
   2330000   292.51884     -4900.8411      1180.5789     -1104.4329     -26.47811     
   2335000   297.66659     -4902.3131      1226.9717     -1013.4787     -2.2639787    
   2340000   298.26783     -4857.2727      1176.4491     -1013.5844      34.878906    
   2345000   295.90109     -4852.0661      1233.3631     -972.62819     -13.822218    
   2350000   294.40886     -4873.8709      1202.3174     -1038.8229     -32.576134    
   2355000   297.40712     -4845.8196      1218.9895     -967.28777     -17.283335    
   2360000   303.77087     -4872.2338      1184.4352     -971.34883      9.1104627    
   2365000   298.78908     -4857.6189      1205.4758     -980.24257      5.6848868    
   2370000   293.44969     -4869.1819      1190.9532     -1054.0753      15.891359    
   2375000   307.04958     -4868.6538      1205.1823     -917.70214      20.897645    
   2380000   300.61488     -4859.0979      1177.3661     -993.50428     -9.4130845    
   2385000   291.86151     -4874.9637      1169.4952     -1095.5174     -14.025122    
   2390000   298.29602     -4902.5519      1191.553      -1043.5076     -8.6931998    
   2395000   308.72786     -4871.8536      1178.8695     -932.20673     -12.013577    
   2400000   298.90579     -4864.0036      1235.7687     -955.29072     -16.268985    
   2405000   304.13326     -4848.0194      1175.1896     -953.13934      6.021889     
   2410000   301.29752     -4847.8947      1228.2292     -925.33343      36.010147    
   2415000   300.57086     -4845.9984      1174.3286     -983.83593      23.033857    
   2420000   303.92752     -4851.1699      1226.9305     -906.38871     -13.274024    
   2425000   296.41457     -4817.2694      1178.4167     -988.1861      -3.5559966    
   2430000   296.72623     -4888.4675      1193.9393     -1041.0746     -6.7769645    
   2435000   304.91745     -4851.9019      1226.4253     -898.77365     -19.377699    
   2440000   301.05717     -4839.9214      1170.2113     -977.52736      5.5314723    
   2445000   306.66459     -4844.1244      1195.7929     -906.0048       5.35339      
   2450000   296.44368     -4848.986       1163.5922     -1034.4668     -0.28055398   
   2455000   290.72394     -4840.7083      1191.6052     -1049.3246     -56.602513    
   2460000   294.84424     -4883.539       1175.9381     -1070.9769     -2.5021686    
   2465000   293.97773     -4830.2038      1178.4112     -1022.9173      2.9446067    
   2470000   296.73973     -4885.7315      1147.0893     -1085.0679     -14.444739    
   2475000   301.95057     -4894.0344      1184.8487     -1009.0138      9.5348546    
   2480000   299.56819     -4881.0372      1156.6737     -1045.4959      35.264619    
   2485000   297.16819     -4879.9294      1178.3661     -1044.1576      11.904415    
   2490000   299.4508      -4892.0475      1225.3184     -988.91123     -3.8870554    
   2495000   293.90005     -4875.0689      1155.261      -1091.6273      5.0787661    
   2500000   298.64868     -4868.5826      1195.3375     -1002.6002      36.641107    
   2505000   301.50922     -4888.2054      1190.8462     -1001.1341      18.939265    
   2510000   302.24233     -4875.1313      1186.2158     -986.13464     -13.943185    
   2515000   299.33355     -4877.64        1126.1105     -1074.7601      3.4827614    
   2520000   298.77014     -4848.8366      1192.133      -984.97253      1.3698109    
   2525000   297.65112     -4878.7281      1215.7518     -1001.252       6.9993123    
   2530000   302.48667     -4907.5049      1168.5272     -1034.0118      14.413595    
   2535000   303.01826     -4867.2723      1145.1442     -1012.4084      3.9910246    
   2540000   299.05771     -4889.2738      1138.5806     -1076.3905      18.905305    
   2545000   298.17929     -4884.7893      1188.6138     -1029.728       31.550578    
   2550000   302.8573      -4859.3305      1200.0753     -950.97499      2.0266379    
   2555000   297.05201     -4835.112       1165.5116     -1013.2337     -19.621116    
   2560000   303.35487     -4881.1369      1253.3737     -915.03348      15.839045    
   2565000   297.47513     -4848.7296      1160.239      -1028.3399      7.9640891    
   2570000   307.33656     -4895.7391      1191.5145     -955.88892     -8.4001826    
   2575000   299.12989     -4882.8005      1213.963      -993.88936      2.1466604    
   2580000   296.34594     -4882.6392      1177.1292     -1055.4572     -7.299184     
   2585000   295.08452     -4897.8133      1166.0469     -1092.9937      16.783661    
   2590000   299.80378     -4886.916       1223.3287     -982.61298     -14.415185    
   2595000   308.71502     -4873.5711      1217.571      -895.33764      10.393407    
   2600000   301.01028     -4873.4398      1216.6362     -965.04017     -14.003641    
   2605000   293.56992     -4859.4732      1186.6316     -1047.6131      44.616579    
   2610000   302.97807     -4846.9518      1233.2058     -904.38579     -3.3208546    
   2615000   296.6167      -4853.292       1171.1137     -1029.7041     -3.296613     
   2620000   299.47917     -4872.682       1167.7944     -1026.8161      8.58292      
   2625000   292.93276     -4861.6122      1231.8674     -1010.2141     -18.218723    
   2630000   304.84386     -4868.7964      1162.914      -979.83745      14.776106    
   2635000   296.83919     -4890.1966      1148.428      -1087.3049     -3.9459719    
   2640000   298.48513     -4874.5744      1256.4698     -948.92217      7.435457     
   2645000   300.15664     -4861.993       1199.3215     -978.5417       16.491854    
   2650000   301.80422     -4897.0762      1220.0743     -978.13867      41.893898    
   2655000   297.34522     -4868.3617      1193.5159     -1015.857      -6.6767499    
   2660000   305.74976     -4855.6712      1227.2918     -894.2335       12.365771    
   2665000   299.53657     -4851.4777      1193.5393     -979.35359      20.031237    
   2670000   304.37234     -4837.003       1184.0738     -931.10081      11.586049    
   2675000   302.58906     -4841.096       1208.5142     -926.70024      1.2707615    
   2680000   300.63794     -4893.0394      1223.6593     -980.94627      10.091466    
   2685000   304.20638     -4878.1789      1186.5834     -971.2511      -5.7425958    
   2690000   299.02057     -4881.3268      1193.5096     -1013.8467      21.060082    
   2695000   302.65874     -4876.2015      1203.9129     -965.78403      23.044543    
   2700000   304.47045     -4872.1611      1189.5995     -959.85586     -21.124906    
   2705000   303.70555     -4871.5366      1228.102      -927.56882      17.807703    
   2710000   303.31093     -4869.5072      1179.405      -977.76538      9.5662364    
   2715000   301.06831     -4888.3759      1234.1029     -961.99061     -6.8741368    
   2720000   304.03338     -4879.911       1159.0897     -1002.0241      6.9775957    
   2725000   300.49982     -4893.1614      1204.613      -1001.3497      27.379968    
   2730000   300.06906     -4905.5099      1226.4353     -995.72801     -2.5739626    
   2735000   298.19437     -4892.6925      1203.538      -1022.5722     -0.90194686   
   2740000   295.33845     -4867.0097      1170.7912     -1055.175      -12.931968    
   2745000   301.88698     -4884.9282      1184.2171     -1001.1079      35.703512    
   2750000   302.24269     -4886.6974      1224.6397     -959.27355     -3.2707469    
   2755000   307.30553     -4880.5222      1188.0208     -944.44319     -4.5174218    
   2760000   305.07544     -4872.7633      1171.5193     -973.12824     -0.67404706   
   2765000   300.90076     -4897.964       1173.3897     -1033.7903     -8.5672626    
   2770000   299.07637     -4841.197       1155.1517     -1011.5757      22.139916    
   2775000   302.68271     -4847.6673      1200.349      -940.59933     -14.571406    
   2780000   303.99092     -4851.5448      1111.52       -1021.6073      0.97556892   
   2785000   307.32909     -4850.8853      1179.6537     -922.96273      1.593518     
   2790000   298.94071     -4852.57        1159.2706     -1020.0429     -15.452169    
   2795000   298.74483     -4867.3482      1213.0825     -982.76091      4.0674073    
   2800000   291.75934     -4873.404       1188.6005     -1075.766      -19.777558    
   2805000   301.77473     -4834.7865      1183.3138     -952.87328     -4.0257999    
   2810000   304.53292     -4829.5236      1159.4349     -946.82444     -2.1528922    
   2815000   303.64045     -4874.1767      1186.0285     -972.86463      16.975028    
   2820000   304.16141     -4857.4609      1192.3892     -945.12955     -26.556803    
   2825000   300.18542     -4823.0625      1169.807      -968.86839     -6.9713354    
   2830000   300.81462     -4833.6405      1214.6062     -929.02052      6.1200548    
   2835000   301.36982     -4846.5662      1140.9138     -1010.6739     -47.505878    
   2840000   300.89284     -4850.9244      1231.4543     -928.75696      5.5212094    
   2845000   305.00871     -4817.1473      1192.8289     -896.79927      20.319419    
   2850000   300.61285     -4829.6981      1253.0539     -888.43482     -31.027684    
   2855000   297.13379     -4853.794       1198.3708     -998.32508     -3.2697771    
   2860000   295.05755     -4847.9027      1222.0258     -987.3454       0.84488347   
   2865000   302.1641      -4845.4259      1184.8288     -958.51575      20.030075    
   2870000   298.87761     -4807.696       1191.4064     -943.59744     -7.2959931    
   2875000   292.16022     -4818.8647      1187.5802     -1018.6621      0.89580811   
   2880000   299.07963     -4821.192       1160.7073     -985.98595      11.433173    
   2885000   298.64624     -4833.8333      1154.6776     -1008.5326      24.693876    
   2890000   299.78477     -4826.6698      1206.1168     -939.74867     -14.268671    
   2895000   304.40636     -4821.0237      1193.9318     -904.95922     -6.002698     
   2900000   300.88655     -4791.2963      1176.3474     -924.29196     -5.4490975    
   2905000   300.50247     -4842.725       1207.6182     -947.88451      21.065166    
   2910000   295.83884     -4844.3826      1151.9567     -1046.9077      17.146156    
   2915000   296.06854     -4839.5002      1223.1833     -968.74469     -13.729212    
   2920000   296.43252     -4852.4933      1248.8207     -952.84559      0.014991621  
   2925000   302.0125      -4797.6593      1182.5925     -914.34107      1.8463262    
   2930000   302.45342     -4843.0685      1176.1473     -962.25272      4.5372447    
   2935000   307.35953     -4838.3395      1166.5461     -923.25229      7.4478063    
   2940000   293.35937     -4837.8907      1222.1173     -992.42771     -35.743034    
   2945000   298.0803      -4830.82        1138.687      -1026.5707      0.14128244   
   2950000   300.576       -4835.6687      1209.8892     -937.89961      5.3837185    
   2955000   306.10701     -4826.7859      1158.1508     -931.29454     -12.142712    
   2960000   300.8292      -4868.2719      1205.4449     -972.6829      -5.55508      
   2965000   290.26586     -4845.3029      1198.4037     -1051.217      -8.9611153    
   2970000   299.01216     -4842.8701      1200.8277     -968.14705      24.582759    
   2975000   299.75685     -4832.9297      1181.0972     -971.27779     -11.828962    
   2980000   299.91418     -4826.8026      1187.0019     -957.83912     -34.739667    
   2985000   289.93863     -4825.4223      1227.0873     -1005.579       1.4260964    
   2990000   301.36942     -4824.3496      1242.8676     -886.50709      1.2817204    
   2995000   293.62472     -4836.0764      1216.4174     -993.94041      4.1599502    
   3000000   297.31785     -4837.8685      1228.0968     -951.02759     -20.503479    
   3005000   305.22624     -4789.9033      1245.444      -814.99491      2.1767787    
   3010000   304.28959     -4847.1464      1159.1538     -966.90414      6.2424594    
   3015000   302.48633     -4842.4839      1194.0034     -943.51766     -9.2323211    
   3020000   293.13872     -4878.9429      1203.2335     -1054.3368      34.080658    
   3025000   291.23283     -4781.2208      1138.575      -1038.3166      5.7234444    
   3030000   297.63402     -4827.7422      1166.8968     -999.27389     -0.41730626   
   3035000   297.17289     -4854.2496      1167.3345     -1029.4672      2.2592962    
   3040000   304.67141     -4859.1949      1198.5956     -936.09658     -0.18380072   
   3045000   303.79665     -4850.5014      1232.6265     -901.19465      33.826434    
   3050000   304.95096     -4862.1784      1183.5148     -951.66083     -7.0397526    
   3055000   292.95389     -4867.5208      1136.6789     -1111.1223      1.3261919    
   3060000   302.12293     -4835.3657      1166.0761     -967.57649      24.212306    
   3065000   294.19185     -4831.4033      1147.511      -1053.1022      0.38250695   
   3070000   291.5337      -4850.1943      1217.526      -1025.6485      13.660079    
   3075000   308.18367     -4834.7185      1165.831      -912.97656      18.596223    
   3080000   305.4328      -4845.7572      1169.467      -944.97868      15.026566    
   3085000   302.0905      -4844.2038      1179.618      -963.1626      -3.7387874    
   3090000   301.62629     -4871.5276      1195.6013     -978.6543      -5.2035259    
   3095000   306.1038      -4865.8672      1127.6397     -1000.9156      16.243715    
   3100000   301.18817     -4883.5569      1194.5031     -995.69959      6.2977241    
   3105000   299.99654     -4861.027       1185.7171     -992.61175      18.741834    
   3110000   298.89422     -4906.1097      1147.4602     -1085.8088      17.910454    
   3115000   294.22961     -4867.7454      1179.1495     -1057.4682      18.577594    
   3120000   300.28479     -4897.7286      1147.8297     -1064.6231      2.1300963    
   3125000   302.12287     -4844.8243      1217.2784     -925.83329      18.451887    
   3130000   294.51012     -4885.6471      1198.7968     -1053.2141      2.2491806    
   3135000   305.78561     -4888.4625      1162.9424     -991.05366      18.19363     
   3140000   298.19175     -4880.1937      1235.3264     -978.30844      18.70614     
   3145000   296.95491     -4876.6838      1171.2559     -1049.9294      7.5987719    
   3150000   301.47653     -4910.704       1179.3986     -1035.3726     -22.692799    
   3155000   306.37244     -4873.3521      1159.84       -973.79798      19.437295    
   3160000   297.57516     -4904.351       1194.4694     -1048.8365      13.111434    
   3165000   308.28546     -4869.9307      1201.3488     -911.76066     -30.884571    
   3170000   295.80832     -4911.0646      1153.2401     -1112.5792     -13.8848      
   3175000   298.93913     -4885.6521      1208.1864     -1004.2234      9.3281882    
   3180000   303.35169     -4866.6119      1177.3161     -976.59452     -34.743552    
   3185000   309.03196     -4905.4591      1177.2727     -964.68962     -0.79813236   
   3190000   295.49332     -4910.1619      1216.3773     -1051.3562      24.233275    
   3195000   303.85784     -4904.1191      1241.054      -945.83758     -8.0612716    
   3200000   295.49398     -4920.1331      1139.8941     -1137.8047      16.735965    
   3205000   301.17134     -4913.6321      1150.3437     -1070.0847     -6.5678413    
   3210000   295.26101     -4917.4411      1180.1958     -1096.8943      8.7394689    
   3215000   305.8962      -4928.8024      1215.337      -978.00995     -15.598468    
   3220000   291.27658     -4906.7807      1187.526      -1114.5342     -9.9206302    
   3225000   296.00967     -4875.2872      1183.7944     -1044.447      -6.5351501    
   3230000   296.53784     -4889.1387      1155.0087     -1082.361       57.324097    
   3235000   301.31678     -4889.9296      1103.5231     -1091.9023     -32.796751    
   3240000   301.1424      -4913.0199      1216.8927     -1003.1824      7.0651823    
   3245000   294.03175     -4913.7085      1216.7842     -1067.566      -12.522539    
   3250000   303.1944      -4894.4343      1172.0595     -1011.08       -0.879349     
   3255000   298.06469     -4896.0026      1181.7566     -1048.8233     -18.140465    
   3260000   297.92299     -4899.0215      1215.9825     -1018.8835     -5.7369401    
   3265000   297.01515     -4905.7328      1217.1425     -1032.5531      28.957387    
   3270000   302.21168     -4901.9315      1190.0023     -1009.4223      4.365459     
   3275000   300.20752     -4902.4597      1171.8351     -1046.0398      44.507653    
   3280000   297.78412     -4901.28        1197.2901     -1041.0762     -0.65553208   
   3285000   292.84063     -4912.0676      1195.3071     -1098.0537      22.456361    
   3290000   303.48739     -4898.26        1196.341      -988.00423      17.9106      
   3295000   300.99641     -4883.9805      1191.1912     -1001.1499     -12.93725     
   3300000   307.38699     -4899.965       1206.5418     -944.63648      16.015408    
   3305000   299.12569     -4905.5356      1211.1469     -1019.4781      21.898707    
   3310000   304.9079      -4873.4857      1177.9095     -968.95867     -0.66776022   
   3315000   300.93322     -4869.689       1180.4375     -998.17718      1.0247587    
   3320000   299.60125     -4883.7901      1226.0308     -978.59608     -6.3137797    
   3325000   303.61629     -4854.5372      1214.7463     -924.72344     -10.194538    
   3330000   295.84836     -4881.2477      1173.5393     -1062.1051      14.800689    
   3335000   301.09937     -4877.3155      1145.0401     -1039.7153      4.5506811    
   3340000   293.78298     -4881.8996      1178.8262     -1075.9397      2.1119001    
   3345000   298.91217     -4907.5687      1218.1837     -1016.3838      8.6541091    
   3350000   299.56501     -4887.6179      1195.5478     -1013.2308      53.183052    
   3355000   298.46186     -4857.4814      1182.106      -1006.4011     -8.2049837    
   3360000   300.81091     -4884.4503      1183.1999     -1011.2698      2.4076277    
   3365000   300.17458     -4881.0294      1176.9671     -1019.772      -4.0603775    
   3370000   311.41724     -4918.8324      1234.1861     -899.8193       16.388261    
   3375000   299.65652     -4867.4286      1222.6661     -965.10503      13.778095    
   3380000   293.23925     -4889.6325      1211.1427     -1056.2183      32.464963    
   3385000   293.69799     -4895.346       1203.4891     -1065.4832     -14.710632    
   3390000   297.94658     -4896.5938      1183.982      -1048.2453      18.104514    
   3395000   306.05288     -4919.2319      1208.8567     -973.51872     -17.069448    
   3400000   298.93296     -4883.2169      1212.7009     -997.32889     -9.9328027    
   3405000   287.66645     -4908.7952      1184.1588     -1152.1992     -3.0295729    
   3410000   304.0687      -4891.9078      1225.4063     -947.38843      16.04053     
   3415000   303.55856     -4930.4628      1216.5432     -999.36839     -3.6279034    
   3420000   294.64533     -4875.0456      1160.1665     -1080.0338      32.827075    
   3425000   296.46904     -4910.7631      1166.3743     -1093.2352      29.795772    
   3430000   299.19666     -4870.7469      1229.5996     -965.60204     -8.1574024    
   3435000   302.88109     -4882.7392      1180.7424     -993.50378     -5.095936     
   3440000   296.01854     -4869.5012      1185.5704     -1036.8057      15.369341    
   3445000   298.96684     -4883.6717      1162.59       -1047.5916     -11.100747    
   3450000   294.56039     -4869.9597      1168.3541     -1067.5199      1.3800934    
   3455000   299.98645     -4891.7757      1206.1916     -1002.9763      17.388324    
   3460000   306.09241     -4870.3207      1205.8066     -927.30416     -1.62786      
   3465000   296.66937     -4832.2022      1208.5719     -970.68525      4.3029299    
   3470000   300.23982     -4899.9177      1175.3724     -1039.6717     -8.4757009    
   3475000   306.50602     -4860.5998      1184.1018     -935.58945      10.114115    
   3480000   303.89997     -4855.9505      1185.2417     -953.10449      12.458334    
   3485000   307.23097     -4855.0669      1174.5621     -933.11331      9.4549325    
   3490000   300.35474     -4840.4342      1178.3601     -976.17292      27.424982    
   3495000   303.39905     -4854.7691      1192.1505     -949.49374     -2.1230753    
   3500000   296.60794     -4890.7708      1227.3254     -1011.0496     -14.632759    
   3505000   300.69444     -4903.6409      1165.9391     -1048.7629     -15.698971    
   3510000   310.80002     -4874.2165      1182.6063     -912.30268     -5.8529712    
   3515000   299.23791     -4865.9426      1188.5529     -1001.4755      18.166869    
   3520000   305.13472     -4878.3407      1197.8264     -951.86838     -1.6773518    
   3525000   301.47328     -4884.3658      1192.0641     -996.39802      4.0762784    
   3530000   300.30165     -4871.299       1179.306      -1006.5664      8.3813124    
   3535000   292.57528     -4908.647       1182.5079     -1109.8052      22.830905    
   3540000   301.36811     -4871.8542      1209.4848     -967.40604      13.338969    
   3545000   297.64843     -4869.2495      1199.893      -1007.6562     -3.6336354    
   3550000   301.02115     -4861.467       1195.5142     -974.09223     -2.2748866    
   3555000   308.25602     -4844.3923      1209.4903     -878.34399      15.784108    
   3560000   300.00482     -4878.4832      1193.3488     -1002.3622     -8.3444662    
   3565000   297.15448     -4924.8055      1187.171      -1080.3513      20.526059    
   3570000   291.59563     -4868.754       1208.6242     -1052.5563     -19.244311    
   3575000   294.49132     -4904.6612      1173.331      -1097.8621      19.805947    
   3580000   300.64171     -4911.4127      1223.0635     -999.88173      39.868366    
   3585000   298.91829     -4864.5875      1184.0896     -1007.442       3.7499561    
   3590000   308.91427     -4888.2938      1195.1502     -930.69926     -2.0530836    
   3595000   302.58488     -4886.732       1187.4447     -993.4431       8.6600057    
   3600000   299.26047     -4881.1271      1144.5134     -1060.4978      15.57641     
   3605000   291.56871     -4880.835       1192.1952     -1081.3071     -1.1337415    
   3610000   308.89513     -4895.4185      1184.0087     -949.13662      4.2942436    
   3615000   294.75511     -4902.1441      1227.245      -1039.0721      18.934395    
   3620000   296.11922     -4891.635       1197.7181     -1045.8914     -26.85059     
   3625000   301.70984     -4869.8972      1223.2493     -948.62871     -10.447393    
   3630000   303.03018     -4877.0921      1227.4921     -939.77373     -9.8199152    
   3635000   296.71355     -4857.2915      1179.143      -1024.8083      26.635348    
   3640000   294.55074     -4882.5606      1213.7683     -1034.7929      7.2205253    
   3645000   299.34209     -4875.9125      1204.2715     -994.79524      2.2776382    
   3650000   293.18871     -4870.1433      1193.0265     -1055.2972     -15.242874    
   3655000   300.32002     -4880.4875      1174.4198     -1020.4769     -22.957103    
   3660000   300.95384     -4906.4164      1238.45       -976.70771     -7.5226869    
   3665000   303.51964     -4889.6407      1218.2369     -957.20066     -10.615944    
   3670000   301.96017     -4894.9762      1231.4318     -963.28663      10.055406    
   3675000   295.0031      -4928.7626      1182.5406     -1108.1774      6.7655058    
   3680000   305.14814     -4926.7483      1241.8135     -956.16882      13.751824    
   3685000   305.11029     -4900.7865      1174.6207     -997.73833     -8.4870581    
   3690000   305.99727     -4887.3757      1214.2571     -936.75938      12.973543    
   3695000   302.56442     -4909.0543      1219.763      -983.63018     -18.191475    
   3700000   297.86591     -4904.5739      1240.6959     -1000.2328     -4.0103298    
   3705000   294.06905     -4929.915       1187.1481     -1113.075      -25.24634     
   3710000   298.29408     -4898.0308      1213.4344     -1017.1225     -25.921317    
   3715000   302.74915     -4885.0814      1174.7215     -1003.0468      2.3182289    
   3720000   306.00634     -4891.0143      1198.7261     -955.84787      6.7853178    
   3725000   299.00783     -4897.0743      1191.8325     -1031.3851      4.3449186    
   3730000   293.49235     -4944.7878      1252.719      -1067.534      -5.5538059    
   3735000   296.93703     -4903.4721      1159.2496     -1088.8839      12.627512    
   3740000   291.54011     -4911.4876      1208.8933     -1095.5172      16.076983    
   3745000   299.91394     -4892.513       1207.542      -1003.0115      18.758707    
   3750000   305.35251     -4872.4287      1210.109      -931.72623      4.7803309    
   3755000   295.90242     -4881.282       1216.9048     -1018.2904     -25.117633    
   3760000   304.93299     -4861.9873      1201.3311     -933.81422     -11.432108    
   3765000   292.42111     -4894.2649      1229.7111     -1049.5985     -4.8378022    
   3770000   298.99989     -4873.5581      1177.9018     -1021.8708      0.92873368   
   3775000   307.88597     -4879.4707      1192.9887     -933.23322      1.1212973    
   3780000   298.04591     -4897.7829      1170.8906     -1061.6376      34.175193    
   3785000   303.36798     -4906.7532      1193.1967     -1000.7095     -15.702572    
   3790000   296.97408     -4908.5338      1187.6169     -1065.2469      28.894156    
   3795000   289.13191     -4890.5163      1197.4143     -1107.5601     -18.590534    
   3800000   300.57835     -4888.5389      1164.4689     -1036.169      -12.807431    
   3805000   305.00474     -4883.9288      1244.3903     -912.05492     -0.85428159   
   3810000   302.38599     -4873.8768      1190.543      -979.2682       4.8518694    
   3815000   298.09194     -4897.9723      1240.9915     -991.31452     -18.490026    
   3820000   305.54885     -4893.6572      1225.5005     -935.80745     -18.823599    
   3825000   303.75173     -4892.5522      1184.3441     -991.92948     -27.247865    
   3830000   303.5328      -4913.1978      1206.835      -992.04189      26.554569    
   3835000   294.59502     -4882.0252      1175.169      -1072.4609      2.4303878    
   3840000   292.72653     -4863.4536      1224.216      -1021.5511      5.4516261    
   3845000   300.05151     -4884.9413      1191.5276     -1010.2241      19.175786    
   3850000   296.12369     -4828.474       1218.4905     -961.91803     -5.1365599    
   3855000   301.72616     -4876.9599      1191.9002     -986.89465     -9.6677815    
   3860000   302.09116     -4853.1062      1135.5695     -1016.1076      6.7865752    
   3865000   300.85117     -4854.5618      1212.005      -952.21629      8.2907548    
   3870000   305.28649     -4846.1384      1233.3973     -882.73787     -6.3557955    
   3875000   303.81601     -4835.8613      1196.9846     -922.02329      39.393324    
   3880000   296.93095     -4835.0354      1186.7937     -992.95742      30.430648    
   3885000   300.71022     -4857.023       1175.1505     -992.79238      9.818958     
   3890000   302.30907     -4860.617       1163.0143     -994.22488     -21.915518    
   3895000   303.83937     -4868.779       1173.3113     -978.40534      15.321519    
   3900000   295.03229     -4884.5085      1168.9754     -1077.2274      10.616181    
   3905000   298.15285     -4842.1384      1214.8778     -961.04951      23.981506    
   3910000   299.34193     -4854.2142      1203.6497     -973.72017      32.384499    
   3915000   299.54242     -4833.3837      1196.919      -957.82754      6.854623     
   3920000   302.82646     -4841.2439      1205.6604     -927.57902      4.2734152    
   3925000   305.06374     -4858.2547      1204.382      -925.86151     -4.0685749    
   3930000   298.49368     -4855.7933      1164.3817     -1022.1527     -26.828746    
   3935000   308.94598     -4827.3571      1221.0302     -843.59903      21.763264    
   3940000   305.93926     -4838.0647      1198.3734     -903.85078      6.6354796    
   3945000   298.77285     -4854.9041      1224.675      -958.47373      4.2691827    
   3950000   297.6782      -4840.7115      1186.9265     -991.81849      17.423651    
   3955000   302.91768     -4855.4773      1217.2636     -929.39356     -20.377239    
   3960000   301.74911     -4807.3748      1160.5873     -948.41715     -14.289696    
   3965000   303.98009     -4833.3535      1209.512      -905.5208      -15.176646    
   3970000   303.37196     -4834.4227      1242.9532     -878.58697      3.2112291    
   3975000   302.49628     -4832.0711      1237.8114     -889.20778      19.64322     
   3980000   293.47923     -4844.5925      1187.2289     -1032.9461      19.300708    
   3985000   296.34708     -4846.1357      1281.4555     -914.61717     -8.3015389    
   3990000   300.0948      -4855.8879      1157.967      -1014.3442     -6.8554716    
   3995000   300.91834     -4814.9977      1150.1173     -973.93915      29.451389    
   4000000   303.00264     -4841.9995      1212.7046     -919.71494      6.8731591    
   4005000   296.00939     -4851.3673      1181.2677     -1023.0563     -10.242975    
   4010000   296.81367     -4842.9132      1162.5728     -1026.1049     -5.5364781    
   4015000   295.04791     -4867.4267      1176.9357     -1052.0457     -19.414251    
   4020000   303.93868     -4854.6871      1176.3566     -960.38007      36.000109    
   4025000   302.15124     -4869.0613      1170.4591     -996.63586      11.001111    
   4030000   303.8005      -4870.2791      1205.7172     -947.84719      13.97982     
   4035000   298.55761     -4891.2739      1216.9769     -1004.4664      0.82088535   
   4040000   293.96951     -4890.4166      1144.765      -1116.8498     -25.29107     
   4045000   303.92803     -4825.1259      1177.3295     -929.94124      33.181025    
   4050000   295.9287      -4840.0274      1187.1934     -1006.5122      5.3189948    
   4055000   304.98436     -4863.046       1221.7992     -913.94549      16.838241    
   4060000   300.2766      -4840.1861      1150.1181     -1004.8654      24.660528    
   4065000   305.72581     -4851.6336      1192.3825     -925.31931      31.791289    
   4070000   302.41601     -4861.7281      1177.201      -980.19297      3.9458471    
   4075000   297.38515     -4862.534       1185.8355     -1017.3526      6.7771626    
   4080000   305.20785     -4866.5191      1163.5703     -973.64893      11.374922    
   4085000   295.74376     -4892.9337      1209.03       -1039.2357      15.807388    
   4090000   298.45456     -4869.3054      1193.9092     -1006.4872      33.499854    
   4095000   291.99859     -4870.3947      1160.8443     -1098.3733      10.416247    
   4100000   297.36929     -4884.3822      1190.4527     -1034.7255     -0.84503826   
   4105000   299.81809     -4882.5375      1184.699      -1016.7361     -33.879227    
   4110000   306.31654     -4856.2834      1143.4051     -973.66396     -14.792633    
   4115000   300.44502     -4890.733       1191.7315     -1012.2929      13.688373    
   4120000   289.83643     -4853.9233      1235.3448     -1026.7365      5.499568     
   4125000   301.03149     -4874.7317      1202.4563     -980.32225      7.2922413    
   4130000   300.77636     -4918.1326      1178.0983     -1050.3627     -2.4657201    
   4135000   302.78271     -4881.5067      1179.6538     -994.23968      2.4283552    
   4140000   295.24128     -4838.0391      1184.8143     -1013.0503      45.506543    
   4145000   295.9404      -4857.4617      1147.0936     -1063.9418      3.4223314    
   4150000   304.48602     -4854.0609      1174.3937     -956.82224     -7.9223976    
   4155000   299.68718     -4895.5111      1180.7181     -1034.8614      9.0242343    
   4160000   293.52756     -4873.3249      1165.0604     -1083.4148      2.386664     
   4165000   293.04046     -4883.6262      1212.6104     -1050.522       12.053304    
   4170000   301.65011     -4840.27        1194.7374     -948.04752      0.97287462   
   4175000   300.63533     -4854.462       1165.2592     -1000.7924     -12.964103    
   4180000   304.17701     -4869.3928      1222.8224     -926.48875     -18.37272     
   4185000   307.96395     -4880.8613      1222.5147     -904.4005       10.977105    
   4190000   304.84745     -4901.3806      1211.4472     -963.85643      27.849259    
   4195000   306.17004     -4868.0023      1179.8266     -950.27143      17.853693    
   4200000   296.30685     -4838.0574      1202.2577     -986.09642      20.674241    
   4205000   302.83586     -4899.7431      1196.3391     -995.3154       11.582929    
   4210000   294.7991      -4866.9744      1189.9996     -1040.7545     -14.496216    
   4215000   300.60189     -4855.7931      1236.6632     -931.01847     -14.65129     
   4220000   291.49345     -4858.1931      1186.9072     -1064.626       15.196046    
   4225000   299.68418     -4887.3951      1213.5326     -993.95768      7.0809392    
   4230000   293.00936     -4840.4365      1206.8487     -1013.3721     -34.327682    
   4235000   309.51666     -4898.5881      1158.1943     -972.56269     -23.248933    
   4240000   297.95759     -4878.0911      1166.6818     -1046.9444     -2.5206408    
   4245000   301.6911      -4846.1681      1194.6148     -953.70171     -22.487878    
   4250000   297.9536      -4853.6508      1257.9157     -931.30584     -26.524384    
   4255000   302.4833      -4835.1655      1182.4954     -947.73437      13.555873    
   4260000   296.38635     -4866.5879      1218.736      -997.43777     -14.702583    
   4265000   300.79779     -4856.6328      1147.3751     -1019.3944      16.840836    
   4270000   297.0809      -4880.8056      1202.7079     -1021.4725     -18.634776    
   4275000   296.34216     -4816.1534      1222.6317     -943.50262     -1.9379595    
   4280000   298.46247     -4892.3774      1150.8629     -1072.5347     -38.398318    
   4285000   303.26205     -4858.1245      1136.9422     -1009.2826     -12.144378    
   4290000   300.18249     -4879.0115      1212.3281     -982.32245      10.360971    
   4295000   300.46867     -4849.7759      1211.9434     -950.91233      7.7384578    
   4300000   301.41572     -4848.5079      1193.6172     -959.50165      8.1145353    
   4305000   291.26226     -4853.3283      1204.5113     -1044.2247     -27.62579     
   4310000   298.10998     -4840.3147      1198.7845     -975.70251      15.887924    
   4315000   308.52922     -4874.1832      1195.2547     -919.92746     -24.067746    
   4320000   300.52348     -4843.0658      1196.3042     -959.35148      10.147979    
   4325000   297.56178     -4864.0321      1182.7696     -1020.3372      9.5219516    
   4330000   296.83088     -4856.3741      1158.833      -1043.1517      30.348397    
   4335000   297.03556     -4832.8835      1148.402      -1028.2617     -9.9409397    
   4340000   297.56812     -4866.975       1204.9635     -1001.0293     -1.23355      
   4345000   297.88396     -4880.3027      1179.9171     -1036.5791      10.679544    
   4350000   305.44572     -4906.2525      1196.1846     -978.64094     -6.8395038    
   4355000   308.88371     -4880.7359      1139.198      -979.36692      21.233895    
[...]
  23945000   297.07902     -4870.0593      1150.5034     -1062.9476     -18.323226    
  23950000   308.79121     -4907.9732      1154.5429     -992.08643     -7.3958547    
  23955000   301.50548     -4896.7378      1220.7106     -979.83547     -5.7368248    
  23960000   302.11847     -4890.3474      1182.5842     -1006.0898      5.3340254    
  23965000   303.16699     -4871.3459      1181.6223     -978.67395      21.653541    
  23970000   295.68806     -4940.2896      1199.4715     -1096.6483      8.2900081    
  23975000   299.26379     -4909.9888      1191.8254     -1042.0179     -29.350903    
  23980000   302.24093     -4917.827       1183.0875     -1031.971       19.660701    
  23985000   301.78043     -4913.8741      1230.5736     -984.65016      15.753398    
  23990000   299.43311     -4908.8659      1129.6053     -1101.6009      26.681656    
  23995000   302.35237     -4921.1957      1205.3697     -1012.061      -22.18573     
  24000000   298.97935     -4883.7302      1216.0883     -994.03995      13.541907    
  24005000   298.86147     -4924.737       1187.6306     -1064.5586      18.870078    
  24010000   301.14978     -4889.2234      1166.0819     -1030.1306     -4.8139327    
  24015000   293.44432     -4889.3229      1175.371      -1089.8466      22.757558    
  24020000   299.36429     -4911.0285      1192.2832     -1041.701       6.7227468    
  24025000   306.42371     -4884.2715      1209.7525     -934.34633      23.611813    
  24030000   304.78757     -4927.585       1191.0047     -1011.0387     -23.100984    
  24035000   292.20116     -4930.7799      1201.171      -1116.6204     -13.617772    
  24040000   295.97539     -4891.2117      1166.4314     -1078.0411     -18.53088     
  24045000   299.45934     -4911.736       1164.8974     -1068.9444     -12.659001    
  24050000   307.84732     -4906.3553      1198.9404     -954.51179     -21.721449    
  24055000   299.48123     -4905.4429      1201.2777     -1026.0752      21.907386    
  24060000   294.15084     -4927.2148      1211.9569     -1084.8346     -32.125986    
  24065000   304.16453     -4909.0507      1142.8334     -1046.2472      19.732425    
  24070000   302.705       -4906.212       1180.2786     -1019.015       5.1401558    
  24075000   304.59368     -4903.8267      1197.0606     -982.95839     -2.2032816    
  24080000   295.19203     -4909.4088      1192.0337     -1077.641       35.855199    
  24085000   299.40568     -4922.1672      1198.3839     -1046.3688      4.7005985    
  24090000   299.8118      -4916.9476      1220.9478     -1014.9537      6.3723744    
  24095000   301.62953     -4922.8114      1212.2537     -1013.2566     -0.47283368   
  24100000   306.19711     -4910.6162      1174.5335     -997.93642     -15.638855    
  24105000   305.4402      -4892.9875      1199.0363     -962.57364     -15.075152    
  24110000   303.96089     -4888.5741      1169.8343     -1000.5907      26.605395    
  24115000   300.72286     -4919.4503      1158.7151     -1071.542      -17.366034    
  24120000   287.42135     -4919.9838      1211.8636     -1137.8748     -2.4188747    
  24125000   302.98273     -4905.715       1163.6664     -1032.6467     -9.3052175    
  24130000   302.16994     -4921.6178      1176.0397     -1043.4445     -31.857429    
  24135000   296.9126      -4909.8559      1224.465      -1030.2707      10.842465    
  24140000   301.27371     -4936.0355      1156.4347     -1085.4817      4.5522301    
  24145000   302.03782     -4894.3807      1195.254      -998.17451     -25.525639    
  24150000   304.34614     -4920.7729      1188.8236     -1010.3552      20.615505    
  24155000   308.05759     -4915.7817      1242.712      -918.28631      2.3300449    
  24160000   300.90278     -4915.0787      1181.7531     -1042.5235     -2.9118238    
  24165000   298.74142     -4923.4594      1168.3875     -1083.5977     -18.790889    
  24170000   296.32947     -4928.1211      1204.2839     -1073.9316      37.246311    
  24175000   294.90368     -4931.1587      1222.7717     -1071.2315      3.5404855    
  24180000   303.65738     -4892.3697      1159.551      -1017.3838     -11.136249    
  24185000   306.59242     -4933.7131      1194.4241     -997.60775      52.719528    
  24190000   301.94758     -4924.1554      1178.8947     -1045.1155     -3.2804073    
  24195000   301.13115     -4893.4732      1180.214      -1020.415      -5.1570283    
  24200000   304.13247     -4905.8237      1202.2175     -983.92284     -48.513619    
  24205000   296.74041     -4911.8858      1182.3478     -1075.9576      35.763609    
  24210000   303.69128     -4892.768       1203.9794     -973.05057     -10.311472    
  24215000   290.28873     -4876.2146      1187.0273     -1093.3005      7.9881096    
  24220000   303.58388     -4939.8091      1187.2143     -1037.8172      2.6851907    
  24225000   294.4292      -4907.6036      1182.9675     -1091.7235      5.8167401    
  24230000   305.91728     -4893.8711      1209.3009     -948.92621      25.482268    
  24235000   296.93817     -4918.5812      1213.5051     -1049.7273     -18.11825     
  24240000   297.356       -4927.8567      1194.9927     -1073.7787      21.603087    
  24245000   298.40746     -4938.0869      1216.0753     -1053.5238     -10.419646    
  24250000   293.49477     -4886.2145      1162.995      -1098.663      -11.101467    
  24255000   301.59362     -4905.5326      1176.2429     -1032.3099     -4.9177509    
  24260000   302.16424     -4913.8729      1151.2785     -1060.5118     -27.024675    
  24265000   298.69405     -4902.502       1219.7578     -1011.6935     -4.1107561    
  24270000   296.44059     -4917.1245      1145.739      -1120.4862      4.4980884    
  24275000   302.703       -4910.919       1146.4325     -1057.5861      37.684199    
  24280000   295.67096     -4885.4337      1208.6136     -1032.8032     -14.506934    
  24285000   308.90199     -4883.9054      1185.1748     -936.3962       30.177198    
  24290000   297.97162     -4909.2182      1183.0886     -1061.5392     -36.608487    
  24295000   295.69233     -4919.3304      1185.3308     -1089.7915      2.4519933    
  24300000   296.55724     -4933.4829      1171.2805     -1110.26       -8.16604      
  24305000   302.38139     -4888.5972      1218.1804     -966.39231     -1.4629898    
  24310000   305.45765     -4921.6268      1195.9374     -994.1557       7.5347715    
  24315000   303.52417     -4921.891       1161.2333     -1046.4141      28.71062     
  24320000   301.27885     -4892.8658      1228.1293     -970.57145      25.013585    
  24325000   297.04821     -4904.4091      1182.2947     -1065.7815     -1.2647889    
  24330000   296.08502     -4927.414       1222.8972     -1056.7973     -2.6200967    
  24335000   304.62476     -4878.5915      1163.4974     -991.0085      -9.8988192    
  24340000   295.23069     -4905.8254      1193.8508     -1071.8947      5.8363869    
  24345000   303.00711     -4920.3224      1189.1045     -1021.5979      10.00587     
  24350000   309.68922     -4911.1841      1269.2632     -872.54674      2.5064941    
  24355000   302.49729     -4886.7974      1216.7546     -964.98192      3.6045884    
  24360000   295.46465     -4872.9174      1251.6001     -979.14528     -10.128169    
  24365000   303.08998     -4900.1418      1243.387      -946.3938       27.183717    
  24370000   301.3405      -4935.069       1169.8518     -1070.5007      18.069666    
  24375000   288.79195     -4893.0792      1191.0556     -1119.5218      0.88246699   
  24380000   299.77264     -4898.988       1153.5091     -1064.783       7.2891447    
  24385000   299.29023     -4915.2622      1195.6996     -1043.1807      7.2108225    
  24390000   292.4657      -4888.9236      1192.1802     -1081.3894      24.056731    
  24395000   298.18127     -4905.3053      1233.2845     -1005.5555      8.4273349    
  24400000   294.11383     -4887.8007      1186.5641     -1071.1442     -15.317804    
  24405000   300.84027     -4915.937       1204.9731     -1020.7208      24.464215    
  24410000   304.00338     -4895.4356      1222.2715     -954.63516      38.206992    
  24415000   301.1671      -4900.2606      1180.4394     -1026.6555      16.612071    
  24420000   302.90605     -4944.4606      1176.1092     -1059.6352      18.143433    
  24425000   301.66796     -4893.6218      1158.0115     -1037.9657      16.415753    
  24430000   303.32405     -4916.7092      1158.6872     -1045.5679     -0.065841294  
  24435000   307.77291     -4910.4773      1264.9118     -893.32778      34.902062    
  24440000   303.28634     -4928.9385      1174.2844     -1042.5372      6.1430102    
  24445000   300.38371     -4921.8962      1233.7461     -1001.9898      31.958653    
  24450000   297.02281     -4908.931       1192.0444     -1060.7809     -19.15313     
  24455000   300.67433     -4935.6356      1198.1448     -1048.7316     -3.361945     
  24460000   302.54767     -4946.1415      1117.4911     -1123.139       29.270291    
  24465000   295.98395     -4952.2931      1184.0328     -1121.4446     -1.2681368    
  24470000   291.93815     -4918.014       1200.2485     -1107.1289     -41.349524    
  24475000   303.15435     -4913.1427      1143.654      -1058.5521      27.591107    
  24480000   300.10314     -4939.2518      1225.6225     -1029.978      -9.0456008    
  24485000   304.93933     -4942.3335      1154.2484     -1061.1864     -0.91506868   
  24490000   301.76985     -4924.5992      1224.4362     -1001.6072      8.210746     
  24495000   300.63542     -4928.2139      1234.7965     -1005.0061      9.130568     
  24500000   301.27987     -4924.7544      1169.1308     -1061.4494      16.056738    
  24505000   288.92791     -4931.7765      1182.0179     -1166.0409     -2.4811047    
  24510000   299.55659     -4916.6967      1219.0944     -1018.8384     -5.3736003    
  24515000   293.36667     -4921.9708      1179.5803     -1118.9796      42.880277    
  24520000   312.49176     -4889.4845      1176.8484     -918.20041      31.753078    
  24525000   298.28052     -4935.2357      1157.2561     -1110.6268     -3.0573108    
  24530000   305.59821     -4917.1116      1212.6875     -971.63336     -17.701654    
  24535000   301.74742     -4955.5871      1175.291      -1081.9409     -9.966994     
  24540000   296.6173      -4933.5103      1172.5588     -1108.4721      11.0404      
  24545000   293.94812     -4897.8509      1178.0803     -1091.1601     -11.574341    
  24550000   300.34154     -4887.6695      1193.0262     -1008.8601      2.6276061    
  24555000   301.72255     -4918.1549      1169.7241     -1050.2979      23.328252    
  24560000   300.78156     -4898.4361      1149.675      -1059.043      -2.3130167    
  24565000   303.50311     -4893.2131      1162.1637     -1016.9941     -1.9267446    
  24570000   302.99424     -4897.2291      1156.553      -1031.1713      25.199662    
  24575000   304.68095     -4899.5396      1178.0375     -996.91398     -14.959271    
  24580000   302.30611     -4907.047       1125.3817     -1078.3141      22.401636    
  24585000   300.96827     -4917.6767      1134.0764     -1092.2125     -9.976977     
  24590000   298.25699     -4854.9771      1198.2796     -989.5552       5.016498     
  24595000   294.11627     -4920.6061      1206.7292     -1083.7626     -21.348774    
  24600000   303.98855     -4915.1666      1262.3712     -934.39909     -14.768016    
  24605000   300.36322     -4922.8505      1239.9846     -996.8888       48.464995    
  24610000   301.74204     -4925.738       1183.1719     -1044.259       15.241948    
  24615000   304.13341     -4905.3327      1179.6058     -1006.0352     -10.447757    
  24620000   303.60296     -4944.3559      1156.2064     -1073.2012      8.1310331    
  24625000   294.87007     -4922.2873      1229.2753     -1056.157       2.964264     
  24630000   304.693       -4912.5074      1223.6335     -964.17806      17.427437    
  24635000   299.05383     -4910.6808      1207.4666     -1028.9462      16.089853    
  24640000   298.03166     -4892.3806      1220.997      -1006.2562     -31.602566    
  24645000   300.88935     -4892.6742      1206.1234     -995.86876      8.7152736    
  24650000   295.06858     -4927.6642      1152.3555     -1136.6785      37.400415    
  24655000   306.51845     -4903.2748      1203.5159     -958.73908      9.6627566    
  24660000   298.74667     -4914.4795      1172.9081     -1070.0502      36.115408    
  24665000   291.28971     -4945.7636      1160.8673     -1180.0585     -3.0321221    
  24670000   299.39643     -4932.0512      1180.5082     -1074.2114     -7.9477848    
  24675000   303.35053     -4893.7123      1204.144      -976.87736     -0.6650795    
  24680000   298.36228     -4927.2538      1152.4688     -1106.7011      13.419479    
  24685000   300.56069     -4949.5192      1165.33       -1096.4462     -4.2622084    
  24690000   299.22653     -4902.6776      1156.407      -1070.4582     -1.5299613    
  24695000   301.25103     -4922.1489      1156.6398     -1071.5928      15.111908    
  24700000   300.44468     -4903.0676      1194.602      -1021.7601      7.5268761    
  24705000   299.24361     -4895.2166      1156.0832     -1063.1684      0.55388486   
  24710000   297.29579     -4883.797       1215.152      -1010.0982     -28.054248    
  24715000   296.87578     -4906.9662      1188.4393     -1063.736       14.987716    
  24720000   311.58524     -4917.0618      1208.2537     -922.47894     -44.232111    
  24725000   297.49182     -4904.2744      1201.4875     -1042.4871      27.366404    
  24730000   302.01507     -4887.6494      1209.3108     -977.59003     -2.5245468    
  24735000   293.90802     -4907.4491      1205.633      -1073.5643      9.3265549    
  24740000   297.98001     -4896.4895      1199.2906     -1032.5335     -11.664498    
  24745000   303.73825     -4881.043       1197.0784     -967.80643     -8.2345498    
  24750000   298.3795      -4869.852       1202.9704     -998.6438      -20.05736     
  24755000   299.49545     -4886.1111      1189.0751     -1018.8188      8.1489715    
  24760000   297.26221     -4903.3093      1223.3868     -1021.6759     -26.539708    
  24765000   305.37254     -4906.6309      1233.2985     -942.55974     -7.1798096    
  24770000   307.70482     -4902.7591      1170.0575     -981.0727       21.700604    
  24775000   291.67332     -4925.7851      1204.8434     -1112.6734      7.6445827    
  24780000   293.22022     -4877.1126      1178.011      -1077.0002      37.389983    
  24785000   302.14918     -4891.9001      1202.62       -987.33218      10.358636    
  24790000   293.71599     -4946.0118      1174.4532     -1145.0238     -15.758134    
  24795000   301.04357     -4951.011       1196.6318     -1062.3181     -33.881241    
  24800000   301.3675      -4922.7309      1204.3932     -1023.3798     -18.392492    
  24805000   300.09604     -4873.3787      1180.8062     -1008.9847     -3.2111892    
  24810000   296.38857     -4926.2475      1183.634      -1092.1794      19.920392    
  24815000   296.82313     -4920.1694      1181.4037     -1084.4455     -6.0385151    
  24820000   303.30035     -4908.6968      1177.012      -1019.4425     -38.108521    
  24825000   301.55585     -4885.3782      1141.7629     -1046.9732      23.866889    
  24830000   301.42229     -4898.0437      1222.0685     -980.52742      17.093968    
  24835000   302.34632     -4925.6574      1160.5417     -1061.4049     -9.4345001    
  24840000   307.47024     -4934.7019      1225.9811     -959.18959     -15.306148    
  24845000   303.82978     -4915.3115      1180.8148     -1017.5201     -4.624253     
  24850000   303.28198     -4913.5939      1179.3291     -1022.1869     -6.7695551    
  24855000   303.33669     -4928.8996      1189.0623     -1027.2701     -20.814       
  24860000   296.42304     -4907.0077      1197.5808     -1058.6845      21.244998    
  24865000   297.69416     -4935.0465      1181.7071     -1091.2302      35.659235    
  24870000   300.2421      -4912.1064      1190.147      -1037.0654      9.3368871    
  24875000   305.12755     -4909.7039      1194.3467     -986.77547     -17.182311    
  24880000   297.7892      -4923.415       1171.6998     -1088.7561     -8.5218577    
  24885000   295.72686     -4914.0276      1209.4477     -1060.0631     -10.233565    
  24890000   299.70626     -4931.5323      1138.5456     -1112.8843     -3.7354335    
  24895000   299.47406     -4915.7138      1191.4777     -1046.2102     -9.5329886    
  24900000   300.79374     -4931.9993      1186.5397     -1055.6326     -17.171736    
  24905000   300.78692     -4927.2017      1186.7573     -1050.6784     -0.77156393   
  24910000   304.13138     -4904.7935      1170.8455     -1014.2744      13.808984    
  24915000   297.86804     -4909.4776      1228.4942     -1017.3193      10.866768    
  24920000   296.55752     -4922.0761      1176.3593     -1093.7719      26.996541    
  24925000   295.40162     -4892.092       1198.4223     -1052.0613      24.228955    
  24930000   303.07411     -4915.7342      1199.0272     -1006.488       28.73376     
  24935000   302.46975     -4932.6309      1194.785      -1033.0313      26.014911    
  24940000   291.28963     -4923.3262      1194.5491     -1123.94        29.559337    
  24945000   304.80788     -4930.5581      1208.5823     -996.25265     -1.0329894    
  24950000   297.74384     -4862.8319      1209.4812     -990.79711      8.4462436    
  24955000   300.77216     -4881.6068      1245.4165     -946.55627      9.9855843    
  24960000   297.35132     -4924.0972      1218.6498     -1046.404       22.47329     
  24965000   306.26037     -4880.5562      1218.4914     -923.35279      3.0264349    
  24970000   302.95597     -4878.7324      1186.7171     -982.85269     -7.1517039    
  24975000   300.72138     -4868.2932      1175.8459     -1003.2674     -1.0121392    
  24980000   298.09715     -4895.3334      1201.1085     -1028.5121      15.20269     
  24985000   293.48052     -4886.8867      1173.4458     -1089.0119      23.276864    
  24990000   303.14769     -4897.6845      1237.9932     -948.81425      8.7022242    
  24995000   303.42548     -4877.3998      1168.9599     -995.07867      11.433551    
  25000000   301.16953     -4869.7055      1166.9143     -1009.6037      8.7993557    
  25005000   306.72608     -4881.6024      1192.0266     -946.69929      12.248316    
  25010000   299.29863     -4878.5655      1141.2372     -1060.8713     -17.350357    
Loop time of 15404.2 on 64 procs for 25000000 steps with 3001 atoms

Performance: 4206.654 ns/day, 0.006 hours/ns, 1622.937 timesteps/s
99.6% CPU use with 64 MPI tasks x 1 OpenMP threads

MPI task timing breakdown:
Section |  min time  |  avg time  |  max time  |%varavg| %total
---------------------------------------------------------------
Pair    | 29.069     | 406.38     | 2995.1     |4576.7 |  2.64
Bond    | 26.398     | 55.826     | 248.7      | 954.6 |  0.36
Neigh   | 4608.6     | 4727.1     | 4962.4     | 128.9 | 30.69
Comm    | 6711.1     | 9942       | 10510      |1135.1 | 64.54
Output  | 40.024     | 40.153     | 40.238     |   1.0 |  0.26
Modify  | 43.818     | 90.265     | 372.37     |1121.0 |  0.59
Other   |            | 142.4      |            |       |  0.92

Nlocal:        46.8906 ave         223 max           7 min
Histogram: 43 13 0 0 0 0 0 0 0 8
Nghost:        3474.75 ave        3875 max        2995 min
Histogram: 8 0 0 0 24 0 17 7 0 8
Neighs:        829.297 ave        6468 max           9 min
Histogram: 56 0 0 0 0 0 0 0 3 5
FullNghs:      1658.59 ave       12536 max          18 min
Histogram: 56 0 0 0 0 0 0 0 2 6

Total # of neighbors = 106150
Ave neighs/atom = 35.371543
Ave special neighs/atom = 3.5988004
Neighbor list builds = 2500000
Dangerous builds = 2499990
Total wall time: 4:16:48
